

     ************************************************************************
     *************** Dalton - An Electronic Structure Program ***************
     ************************************************************************

    This is output from DALTON release Dalton2020.0.beta (2020)
         ( Web site: http://daltonprogram.org )

   ----------------------------------------------------------------------------

    NOTE:
     
    Dalton is an experimental code for the evaluation of molecular
    properties using (MC)SCF, DFT, CI, and CC wave functions.
    The authors accept no responsibility for the performance of
    the code or for the correctness of the results.
     
    The code (in whole or part) is provided under a licence and
    is not to be reproduced for further distribution without
    the written permission of the authors or their representatives.
     
    See the home page "http://daltonprogram.org" for further information.
     
    If results obtained with this code are published,
    the appropriate citations would be both of:
     
       K. Aidas, C. Angeli, K. L. Bak, V. Bakken, R. Bast,
       L. Boman, O. Christiansen, R. Cimiraglia, S. Coriani,
       P. Dahle, E. K. Dalskov, U. Ekstroem,
       T. Enevoldsen, J. J. Eriksen, P. Ettenhuber, B. Fernandez,
       L. Ferrighi, H. Fliegl, L. Frediani, K. Hald, A. Halkier,
       C. Haettig, H. Heiberg, T. Helgaker, A. C. Hennum,
       H. Hettema, E. Hjertenaes, S. Hoest, I.-M. Hoeyvik,
       M. F. Iozzi, B. Jansik, H. J. Aa. Jensen, D. Jonsson,
       P. Joergensen, J. Kauczor, S. Kirpekar,
       T. Kjaergaard, W. Klopper, S. Knecht, R. Kobayashi, H. Koch,
       J. Kongsted, A. Krapp, K. Kristensen, A. Ligabue,
       O. B. Lutnaes, J. I. Melo, K. V. Mikkelsen, R. H. Myhre,
       C. Neiss, C. B. Nielsen, P. Norman, J. Olsen,
       J. M. H. Olsen, A. Osted, M. J. Packer, F. Pawlowski,
       T. B. Pedersen, P. F. Provasi, S. Reine, Z. Rinkevicius,
       T. A. Ruden, K. Ruud, V. Rybkin, P. Salek, C. C. M. Samson,
       A. Sanchez de Meras, T. Saue, S. P. A. Sauer,
       B. Schimmelpfennig, K. Sneskov, A. H. Steindal,
       K. O. Sylvester-Hvid, P. R. Taylor, A. M. Teale,
       E. I. Tellgren, D. P. Tew, A. J. Thorvaldsen, L. Thoegersen,
       O. Vahtras, M. A. Watson, D. J. D. Wilson, M. Ziolkowski
       and H. Agren,
       "The Dalton quantum chemistry program system",
       WIREs Comput. Mol. Sci. 2014, 4:269–284 (doi: 10.1002/wcms.1172)
     
    and
     
       Dalton, a molecular electronic structure program,
       Release Dalton2020.0.beta (2020), see http://daltonprogram.org
   ----------------------------------------------------------------------------

    Authors in alphabetical order (major contribution(s) in parenthesis):

  Kestutis Aidas,           Vilnius University,           Lithuania   (QM/MM)
  Celestino Angeli,         University of Ferrara,        Italy       (NEVPT2)
  Keld L. Bak,              UNI-C,                        Denmark     (AOSOPPA, non-adiabatic coupling, magnetic properties)
  Vebjoern Bakken,          University of Oslo,           Norway      (DALTON; geometry optimizer, symmetry detection)
  Radovan Bast,             UiT The Arctic U. of Norway,  Norway      (DALTON installation and execution frameworks)
  Pablo Baudin,             University of Valencia,       Spain       (Cholesky excitation energies)
  Linus Boman,              NTNU,                         Norway      (Cholesky decomposition and subsystems)
  Ove Christiansen,         Aarhus University,            Denmark     (CC module)
  Renzo Cimiraglia,         University of Ferrara,        Italy       (NEVPT2)
  Sonia Coriani,            Technical Univ. of Denmark,   Denmark     (CC module, MCD in RESPONS)
  Janusz Cukras,            University of Trieste,        Italy       (MChD in RESPONS)
  Paal Dahle,               University of Oslo,           Norway      (Parallelization)
  Erik K. Dalskov,          UNI-C,                        Denmark     (SOPPA)
  Thomas Enevoldsen,        Univ. of Southern Denmark,    Denmark     (SOPPA)
  Janus J. Eriksen,         Aarhus University,            Denmark     (Polarizable embedding model, TDA)
  Rasmus Faber,             University of Copenhagen,     Denmark     (Vib.avg. NMR with SOPPA, parallel AO-SOPPA)
  Tobias Fahleson,          KTH Stockholm,                Sweden      (Damped cubic response)
  Berta Fernandez,          U. of Santiago de Compostela, Spain       (doublet spin, ESR in RESPONS)
  Lara Ferrighi,            Aarhus University,            Denmark     (PCM Cubic response)
  Heike Fliegl,             University of Oslo,           Norway      (CCSD(R12))
  Luca Frediani,            UiT The Arctic U. of Norway,  Norway      (PCM)
  Bin Gao,                  UiT The Arctic U. of Norway,  Norway      (Gen1Int library)
  Christof Haettig,         Ruhr-University Bochum,       Germany     (CC module)
  Kasper Hald,              Aarhus University,            Denmark     (CC module)
  Asger Halkier,            Aarhus University,            Denmark     (CC module)
  Frederik Beyer Hansen,    University of Copenhagen,     Denmark     (Parallel AO-SOPPA)
  Erik D. Hedegaard,        Univ. of Southern Denmark,    Denmark     (Polarizable embedding model, QM/MM)
  Hanne Heiberg,            University of Oslo,           Norway      (geometry analysis, selected one-electron integrals)
  Trygve Helgaker,          University of Oslo,           Norway      (DALTON; ABACUS, ERI, DFT modules, London, and much more)
  Alf Christian Hennum,     University of Oslo,           Norway      (Parity violation)
  Hinne Hettema,            University of Auckland,       New Zealand (quadratic response in RESPONS; SIRIUS supersymmetry)
  Eirik Hjertenaes,         NTNU,                         Norway      (Cholesky decomposition)
  Pi A. B. Haase,           University of Copenhagen,     Denmark     (Triplet AO-SOPPA)
  Maria Francesca Iozzi,    University of Oslo,           Norway      (RPA)
  Christoph Jacob           TU Braunschweig               Germany     (Frozen density embedding model)
  Brano Jansik              Technical Univ. of Ostrava    Czech Rep.  (DFT cubic response)
  Hans Joergen Aa. Jensen,  Univ. of Southern Denmark,    Denmark     (DALTON; SIRIUS, RESPONS, ABACUS modules, London, and much more)
  Dan Jonsson,              UiT The Arctic U. of Norway,  Norway      (cubic response in RESPONS module)
  Poul Joergensen,          Aarhus University,            Denmark     (RESPONS, ABACUS, and CC modules)
  Maciej Kaminski,          University of Warsaw,         Poland      (CPPh in RESPONS)
  Joanna Kauczor,           Linkoeping University,        Sweden      (Complex polarization propagator (CPP) module)
  Sheela Kirpekar,          Univ. of Southern Denmark,    Denmark     (Mass-velocity & Darwin integrals)
  Wim Klopper,              KIT Karlsruhe,                Germany     (R12 code in CC, SIRIUS, and ABACUS modules)
  Stefan Knecht,            ETH Zurich,                   Switzerland (Parallel CI and MCSCF)
  Rika Kobayashi,           Australian National Univ.,    Australia   (DIIS in CC, London in MCSCF)
  Henrik Koch,              NTNU,                         Norway      (CC module, Cholesky decomposition)
  Jacob Kongsted,           Univ. of Southern Denmark,    Denmark     (Polarizable embedding model, QM/MM)
  Andrea Ligabue,           University of Modena,         Italy       (CTOCD, AOSOPPA)
  Nanna H. List             Univ. of Southern Denmark,    Denmark     (Polarizable embedding model)
  Ola B. Lutnaes,           University of Oslo,           Norway      (DFT Hessian)
  Juan I. Melo,             University of Buenos Aires,   Argentina   (LRESC, Relativistic Effects on NMR Shieldings)
  Kurt V. Mikkelsen,        University of Copenhagen,     Denmark     (MC-SCRF and QM/MM)
  Rolf H. Myhre,            NTNU,                         Norway      (Subsystems and CC3)
  Christian Neiss,          Univ. Erlangen-Nuernberg,     Germany     (CCSD(R12))
  Christian B. Nielsen,     University of Copenhagen,     Denmark     (QM/MM)
  Patrick Norman,           KTH Stockholm,                Sweden      (Cubic response and complex frequency response in RESPONS)
  Jeppe Olsen,              Aarhus University,            Denmark     (SIRIUS CI/density modules)
  Jogvan Magnus H. Olsen,   Univ. of Southern Denmark,    Denmark     (Polarizable embedding model, QM/MM)
  Anders Osted,             Copenhagen University,        Denmark     (QM/MM)
  Martin J. Packer,         University of Sheffield,      UK          (SOPPA)
  Filip Pawlowski,          Kazimierz Wielki University,  Poland      (CC3)
  Morten N. Pedersen,       Univ. of Southern Denmark,    Denmark     (Polarizable embedding model)
  Thomas B. Pedersen,       University of Oslo,           Norway      (Cholesky decomposition)
  Patricio F. Provasi,      University of Northeastern,   Argentina   (Analysis of coupling constants in localized orbitals)
  Zilvinas Rinkevicius,     KTH Stockholm,                Sweden      (open-shell DFT, ESR)
  Elias Rudberg,            KTH Stockholm,                Sweden      (DFT grid and basis info)
  Torgeir A. Ruden,         University of Oslo,           Norway      (Numerical derivatives in ABACUS)
  Kenneth Ruud,             UiT The Arctic U. of Norway,  Norway      (DALTON; ABACUS magnetic properties and much more)
  Pawel Salek,              KTH Stockholm,                Sweden      (DALTON; DFT code)
  Claire C. M. Samson       University of Karlsruhe       Germany     (Boys localization, r12 integrals in ERI)
  Alfredo Sanchez de Meras, University of Valencia,       Spain       (CC module, Cholesky decomposition)
  Trond Saue,               Paul Sabatier University,     France      (direct Fock matrix construction)
  Stephan P. A. Sauer,      University of Copenhagen,     Denmark     (SOPPA(CCSD), SOPPA prop., AOSOPPA, vibrational g-factors)
  Andre S. P. Gomes,        CNRS/Universite de Lille,     France      (Frozen density embedding model)
  Bernd Schimmelpfennig,    Forschungszentrum Karlsruhe,  Germany     (AMFI module)
  Anna K. Schnack-Petersen, University of Copenhagen,     Denmark     (RPA(D) and HRPA(D) properties in AOSOPPA)
  Kristian Sneskov,         Aarhus University,            Denmark     (Polarizable embedding model, QM/MM)
  Arnfinn H. Steindal,      UiT The Arctic U. of Norway,  Norway      (parallel QM/MM, Polarizable embedding model)
  Casper Steinmann,         Univ. of Southern Denmark,    Denmark     (QFIT, Polarizable embedding model)
  K. O. Sylvester-Hvid,     University of Copenhagen,     Denmark     (MC-SCRF)
  Peter R. Taylor,          VLSCI/Univ. of Melbourne,     Australia   (Symmetry handling ABACUS, integral transformation)
  Andrew M. Teale,          University of Nottingham,     England     (DFT-AC, DFT-D)
  David P. Tew,             University of Bristol,        England     (CCSD(R12))
  Olav Vahtras,             KTH Stockholm,                Sweden      (triplet response, spin-orbit, ESR, TDDFT, open-shell DFT)
  Lucas Visscher,           Vrije Universiteit Amsterdam, Netherlands (Frozen density embedding model)
  David J. Wilson,          La Trobe University,          Australia   (DFT Hessian and DFT magnetizabilities)
  Hans Agren,               KTH Stockholm,                Sweden      (SIRIUS module, RESPONS, MC-SCRF solvation model)
 --------------------------------------------------------------------------------

     Date and time (Linux)  : Sat May 15 10:55:52 2021
     Host name              : ADM-124261                              

 * Work memory size             :    64000000 =  488.28 megabytes.

 * Directories for basis set searches:
   1) /mnt/c/Users/kjellgren/Desktop/calc
   2) /home/kjellgren/dalton/build/basis


Compilation information
-----------------------

 Who compiled             | kjellgren
 Host                     | ADM-124261
 System                   | Linux-4.4.0-19041-Microsoft
 CMake generator          | Unix Makefiles
 Processor                | x86_64
 64-bit integers          | OFF
 MPI                      | ON
 Fortran compiler         | /usr/bin/mpif90
 Fortran compiler version | unknown
 C compiler               | /usr/bin/mpicc
 C compiler version       | unknown
 C++ compiler             | /usr/bin/mpicxx
 C++ compiler version     | unknown
 BLAS                     | /usr/lib/x86_64-linux-gnu/libblas.so
 LAPACK                   | /usr/lib/x86_64-linux-gnu/liblapack.so
 Static linking           | OFF
 Last Git revision        | 630237c9b4c22c9f940e557785d488d357dba04e
 Git branch               | keyword_for_not_checking_atomdist
 Configuration time       | 2020-11-11 11:17:28.574465

 * Sequential calculation.


   Content of the .dal input file
 ----------------------------------

**DALTON INPUT
.RUN WAVE FUNCTIONS
*MOLBAS
.PRINT
 10
**WAVE FUNCTIONS
.HF
*ORBITAL INPUT
.PUNCHOUTORBITALS
**END OF DALTON INPUT


   Content of the .mol file
 ----------------------------

BASIS
cc-pVDZ-DK
 Title
 Generated by the Dalton Input File Plugin for Avogadro
Atomtypes=4 Charge=-1 Nosymmetry
Charge=26.0 Atoms=1
Fe         0.00092        0.00000        0.37789
Charge=7.0 Atoms=1
N          0.00062        0.00000        3.51545
Charge=6.0 Atoms=3
C          2.99855        0.00000       -1.12906
C         -1.49900       -2.59520       -1.12928
C         -1.49900        2.59520       -1.12928
Charge=8.0 Atoms=4
O         -2.50142       -4.32842       -2.08667
O         -2.50142        4.32842       -2.08667
O         -0.00024        0.00000        5.77447
O          5.00100        0.00000       -2.08599


       *******************************************************************
       *********** Output from DALTON general input processing ***********
       *******************************************************************

 --------------------------------------------------------------------------------
   Overall default print level:    0
   Print level for DALTON.STAT:    1

    HERMIT 1- and 2-electron integral sections will be executed
    "Old" integral transformation used (limited to max 255 basis functions)
    Wave function sections will be executed (SIRIUS module)
 --------------------------------------------------------------------------------

@ * Nuclear model: Point charge.


 Changes of defaults for *MOLBAS
 -------------------------------

 Print level in molecule setup (READIN):   10



   ****************************************************************************
   *************** Output of molecule and basis set information ***************
   ****************************************************************************


 Basis set 1 is  "cc-pVDZ-DK" from the basis set library.

    The two title cards from your ".mol" input:
    ------------------------------------------------------------------------
 1:  Title                                                                  
 2:  Generated by the Dalton Input File Plugin for Avogadro                 
    ------------------------------------------------------------------------

  Calculation of transformation matrices for spherical GTOs.


                            **************************
                            *** Output from SPHCOM ***
                            **************************

      LVAL      2
      NLM       5
      NXYZ      6
      MINTEG    2


                              +---------------------+
                              ! Legendre polynomial !
                              +---------------------+


               Column   1     Column   2     Column   3
       1      -0.50000000     0.00000000     1.50000000
    ==== End of matrix output ====


                            +-------------------------+
                            ! Cosine and sine factors !
                            +-------------------------+


               Column   1     Column   2     Column   3
       1       1.00000000     0.00000000     0.00000000
       2       1.00000000     1.00000000     0.00000000
       3       1.00000000     2.00000000    -1.00000000
    ==== End of matrix output ====


                  +----------------------------------------------+
                  ! Cartesian to spherical transformation matrix !
                  +----------------------------------------------+

                              Moment order: 2

               Column   1     Column   2     Column   3     Column   4     Column   5
       1       0.00000000     0.00000000    -0.28867513     0.00000000     0.50000000
       2       1.00000000     0.00000000     0.00000000     0.00000000     0.00000000
       3       0.00000000     0.00000000     0.00000000     1.00000000     0.00000000
       4       0.00000000     0.00000000    -0.28867513     0.00000000    -0.50000000
       5       0.00000000     1.00000000     0.00000000     0.00000000     0.00000000
       6       0.00000000     0.00000000     0.57735027     0.00000000     0.00000000
    ==== End of matrix output ====


                            **************************
                            *** Output from SPHCOM ***
                            **************************

      LVAL      3
      NLM       7
      NXYZ     10
      MINTEG    2


                              +---------------------+
                              ! Legendre polynomial !
                              +---------------------+


               Column   1     Column   2     Column   3     Column   4
       1       0.00000000    -1.50000000     0.00000000     2.50000000
    ==== End of matrix output ====


                            +-------------------------+
                            ! Cosine and sine factors !
                            +-------------------------+


               Column   1     Column   2     Column   3     Column   4
       1       1.00000000     0.00000000     0.00000000     0.00000000
       2       1.00000000     1.00000000     0.00000000     0.00000000
       3       1.00000000     2.00000000    -1.00000000     0.00000000
       4       1.00000000     3.00000000    -3.00000000    -1.00000000
    ==== End of matrix output ====


                  +----------------------------------------------+
                  ! Cartesian to spherical transformation matrix !
                  +----------------------------------------------+

                              Moment order: 3

               Column   1     Column   2     Column   3     Column   4     Column   5
       1       0.00000000     0.00000000     0.00000000     0.00000000    -0.15811388
       2       0.61237244     0.00000000    -0.15811388     0.00000000     0.00000000
       3       0.00000000     0.00000000     0.00000000    -0.38729833     0.00000000
       4       0.00000000     0.00000000     0.00000000     0.00000000    -0.15811388
       5       0.00000000     1.00000000     0.00000000     0.00000000     0.00000000
       6       0.00000000     0.00000000     0.00000000     0.00000000     0.63245553
       7      -0.20412415     0.00000000    -0.15811388     0.00000000     0.00000000
       8       0.00000000     0.00000000     0.00000000    -0.38729833     0.00000000
       9       0.00000000     0.00000000     0.63245553     0.00000000     0.00000000
      10       0.00000000     0.00000000     0.00000000     0.25819889     0.00000000

               Column   6     Column   7
       1       0.00000000     0.20412415
       3       0.50000000     0.00000000
       4       0.00000000    -0.61237244
       8      -0.50000000     0.00000000
    ==== End of matrix output ====


                            **************************
                            *** Output from SPHCOM ***
                            **************************

      LVAL      4
      NLM       9
      NXYZ     15
      MINTEG    2


                              +---------------------+
                              ! Legendre polynomial !
                              +---------------------+


               Column   1     Column   2     Column   3     Column   4     Column   5
       1       0.37500000     0.00000000    -3.75000000     0.00000000     4.37500000
    ==== End of matrix output ====


                            +-------------------------+
                            ! Cosine and sine factors !
                            +-------------------------+


               Column   1     Column   2     Column   3     Column   4     Column   5
       1       1.00000000     0.00000000     0.00000000     0.00000000     0.00000000
       2       1.00000000     1.00000000     0.00000000     0.00000000     0.00000000
       3       1.00000000     2.00000000    -1.00000000     0.00000000     0.00000000
       4       1.00000000     3.00000000    -3.00000000    -1.00000000     0.00000000
       5       1.00000000     4.00000000    -6.00000000    -4.00000000     1.00000000
    ==== End of matrix output ====


                  +----------------------------------------------+
                  ! Cartesian to spherical transformation matrix !
                  +----------------------------------------------+

                              Moment order: 4

               Column   1     Column   2     Column   3     Column   4     Column   5
       1       0.00000000     0.00000000     0.00000000     0.00000000     0.03659625
       2       0.28867513     0.00000000    -0.10910895     0.00000000     0.00000000
       4       0.00000000     0.00000000     0.00000000     0.00000000     0.07319251
       5       0.00000000     0.61237244     0.00000000    -0.23145502     0.00000000
       6       0.00000000     0.00000000     0.00000000     0.00000000    -0.29277002
       7      -0.28867513     0.00000000    -0.10910895     0.00000000     0.00000000
       9       0.00000000     0.00000000     0.65465367     0.00000000     0.00000000
      11       0.00000000     0.00000000     0.00000000     0.00000000     0.03659625
      12       0.00000000    -0.20412415     0.00000000    -0.23145502     0.00000000
      13       0.00000000     0.00000000     0.00000000     0.00000000    -0.29277002
      14       0.00000000     0.00000000     0.00000000     0.30860670     0.00000000
      15       0.00000000     0.00000000     0.00000000     0.00000000     0.09759001

               Column   6     Column   7     Column   8     Column   9
       1       0.00000000    -0.05455447     0.00000000     0.07216878
       3      -0.23145502     0.00000000     0.20412415     0.00000000
       4       0.00000000     0.00000000     0.00000000    -0.43301270
       6       0.00000000     0.32732684     0.00000000     0.00000000
       8      -0.23145502     0.00000000    -0.61237244     0.00000000
      10       0.30860670     0.00000000     0.00000000     0.00000000
      11       0.00000000     0.05455447     0.00000000     0.07216878
      13       0.00000000    -0.32732684     0.00000000     0.00000000
    ==== End of matrix output ====


                            **************************
                            *** Output from SPHCOM ***
                            **************************

      LVAL      5
      NLM      11
      NXYZ     21
      MINTEG    2


                              +---------------------+
                              ! Legendre polynomial !
                              +---------------------+


               Column   1     Column   2     Column   3     Column   4     Column   5
       1       0.00000000     1.87500000     0.00000000    -8.75000000     0.00000000

               Column   6
       1       7.87500000
    ==== End of matrix output ====


                            +-------------------------+
                            ! Cosine and sine factors !
                            +-------------------------+


               Column   1     Column   2     Column   3     Column   4     Column   5
       1       1.00000000     0.00000000     0.00000000     0.00000000     0.00000000
       2       1.00000000     1.00000000     0.00000000     0.00000000     0.00000000
       3       1.00000000     2.00000000    -1.00000000     0.00000000     0.00000000
       4       1.00000000     3.00000000    -3.00000000    -1.00000000     0.00000000
       5       1.00000000     4.00000000    -6.00000000    -4.00000000     1.00000000
       6       1.00000000     5.00000000   -10.00000000   -10.00000000     5.00000000

               Column   6
       6       1.00000000
    ==== End of matrix output ====


                  +----------------------------------------------+
                  ! Cartesian to spherical transformation matrix !
                  +----------------------------------------------+

                              Moment order: 5

               Column   1     Column   2     Column   3     Column   4     Column   5
       2       0.11410887     0.00000000    -0.05103104     0.00000000     0.01574852
       5       0.00000000     0.28867513     0.00000000    -0.16666667     0.00000000
       7      -0.22821773     0.00000000    -0.03402069     0.00000000     0.03149704
       9       0.00000000     0.00000000     0.40824829     0.00000000    -0.18898224
      12       0.00000000    -0.28867513     0.00000000    -0.16666667     0.00000000
      14       0.00000000     0.00000000     0.00000000     0.33333333     0.00000000
      16       0.02282177     0.00000000     0.01701035     0.00000000     0.01574852
      18       0.00000000     0.00000000    -0.13608276     0.00000000    -0.18898224
      20       0.00000000     0.00000000     0.00000000     0.00000000     0.12598816

               Column   6     Column   7     Column   8     Column   9     Column  10
       1       0.00000000     0.01574852     0.00000000    -0.01701035     0.00000000
       3       0.06099375     0.00000000    -0.08333333     0.00000000     0.07216878
       4       0.00000000     0.03149704     0.00000000     0.03402069     0.00000000
       6       0.00000000    -0.18898224     0.00000000     0.13608276     0.00000000
       8       0.12198751     0.00000000     0.00000000     0.00000000    -0.43301270
      10      -0.16265001     0.00000000     0.16666667     0.00000000     0.00000000
      11       0.00000000     0.01574852     0.00000000     0.05103104     0.00000000
      13       0.00000000    -0.18898224     0.00000000    -0.40824829     0.00000000
      15       0.00000000     0.12598816     0.00000000     0.00000000     0.00000000
      17       0.06099375     0.00000000     0.08333333     0.00000000     0.07216878
      19      -0.16265001     0.00000000    -0.16666667     0.00000000     0.00000000
      21       0.03253000     0.00000000     0.00000000     0.00000000     0.00000000

               Column  11
       1       0.02282177
       4      -0.22821773
      11       0.11410887
    ==== End of matrix output ====


                            **************************
                            *** Output from SPHCOM ***
                            **************************

      LVAL      6
      NLM      13
      NXYZ     28
      MINTEG    2


                              +---------------------+
                              ! Legendre polynomial !
                              +---------------------+


               Column   1     Column   2     Column   3     Column   4     Column   5
       1      -0.31250000     0.00000000     6.56250000     0.00000000   -19.68750000

               Column   6     Column   7
       1       0.00000000    14.43750000
    ==== End of matrix output ====


                            +-------------------------+
                            ! Cosine and sine factors !
                            +-------------------------+


               Column   1     Column   2     Column   3     Column   4     Column   5
       1       1.00000000     0.00000000     0.00000000     0.00000000     0.00000000
       2       1.00000000     1.00000000     0.00000000     0.00000000     0.00000000
       3       1.00000000     2.00000000    -1.00000000     0.00000000     0.00000000
       4       1.00000000     3.00000000    -3.00000000    -1.00000000     0.00000000
       5       1.00000000     4.00000000    -6.00000000    -4.00000000     1.00000000
       6       1.00000000     5.00000000   -10.00000000   -10.00000000     5.00000000
       7       1.00000000     6.00000000   -15.00000000   -20.00000000    15.00000000

               Column   6     Column   7
       6       1.00000000     0.00000000
       7       6.00000000    -1.00000000
    ==== End of matrix output ====


                  +----------------------------------------------+
                  ! Cartesian to spherical transformation matrix !
                  +----------------------------------------------+

                              Moment order: 6

               Column   1     Column   2     Column   3     Column   4     Column   5
       2       0.03952847     0.00000000    -0.01946247     0.00000000     0.00888336
       5       0.00000000     0.11410887     0.00000000    -0.07995027     0.00000000
       7      -0.13176157     0.00000000     0.00000000     0.00000000     0.01776673
       9       0.00000000     0.00000000     0.19462474     0.00000000    -0.14213381
      12       0.00000000    -0.22821773     0.00000000    -0.05330018     0.00000000
      14       0.00000000     0.00000000     0.00000000     0.21320072     0.00000000
      16       0.03952847     0.00000000     0.01946247     0.00000000     0.00888336
      18       0.00000000     0.00000000    -0.19462474     0.00000000    -0.14213381
      20       0.00000000     0.00000000     0.00000000     0.00000000     0.14213381
      23       0.00000000     0.02282177     0.00000000     0.02665009     0.00000000
      25       0.00000000     0.00000000     0.00000000    -0.07106691     0.00000000

               Column   6     Column   7     Column   8     Column   9     Column  10
       1       0.00000000    -0.00306505     0.00000000     0.00444168     0.00000000
       3       0.00000000     0.00000000     0.02809166     0.00000000    -0.02665009
       4       0.00000000    -0.00919515     0.00000000     0.00444168     0.00000000
       5       0.02809166     0.00000000     0.00000000     0.00000000     0.00000000
       6       0.00000000     0.05517093     0.00000000    -0.07106691     0.00000000
       8       0.00000000     0.00000000     0.05618332     0.00000000     0.05330018
      10       0.00000000     0.00000000    -0.11236664     0.00000000     0.07106691
      11       0.00000000    -0.00919515     0.00000000    -0.00444168     0.00000000
      12       0.05618332     0.00000000     0.00000000     0.00000000     0.00000000
      13       0.00000000     0.11034185     0.00000000     0.00000000     0.00000000
      14      -0.11236664     0.00000000     0.00000000     0.00000000     0.00000000
      15       0.00000000    -0.07356124     0.00000000     0.07106691     0.00000000
      17       0.00000000     0.00000000     0.02809166     0.00000000     0.07995027
      19       0.00000000     0.00000000    -0.11236664     0.00000000    -0.21320072
      21       0.00000000     0.00000000     0.04494666     0.00000000     0.00000000
      22       0.00000000    -0.00306505     0.00000000    -0.00444168     0.00000000
      23       0.02809166     0.00000000     0.00000000     0.00000000     0.00000000
      24       0.00000000     0.05517093     0.00000000     0.07106691     0.00000000
      25      -0.11236664     0.00000000     0.00000000     0.00000000     0.00000000
      26       0.00000000    -0.07356124     0.00000000    -0.07106691     0.00000000
      27       0.04494666     0.00000000     0.00000000     0.00000000     0.00000000
      28       0.00000000     0.00980816     0.00000000     0.00000000     0.00000000

               Column  11     Column  12     Column  13
       1      -0.00486562     0.00000000     0.00658808
       3       0.00000000     0.02282177     0.00000000
       4       0.02432809     0.00000000    -0.09882118
       6       0.04865618     0.00000000     0.00000000
       8       0.00000000    -0.22821773     0.00000000
      11       0.02432809     0.00000000     0.09882118
      13      -0.29193710     0.00000000     0.00000000
      17       0.00000000     0.11410887     0.00000000
      22      -0.00486562     0.00000000    -0.00658808
      24       0.04865618     0.00000000     0.00000000
    ==== End of matrix output ====


                            **************************
                            *** Output from SPHCOM ***
                            **************************

      LVAL      7
      NLM      15
      NXYZ     36
      MINTEG    2


                              +---------------------+
                              ! Legendre polynomial !
                              +---------------------+


               Column   1     Column   2     Column   3     Column   4     Column   5
       1       0.00000000    -2.18750000     0.00000000    19.68750000     0.00000000

               Column   6     Column   7     Column   8
       1     -43.31250000     0.00000000    26.81250000
    ==== End of matrix output ====


                            +-------------------------+
                            ! Cosine and sine factors !
                            +-------------------------+


               Column   1     Column   2     Column   3     Column   4     Column   5
       1       1.00000000     0.00000000     0.00000000     0.00000000     0.00000000
       2       1.00000000     1.00000000     0.00000000     0.00000000     0.00000000
       3       1.00000000     2.00000000    -1.00000000     0.00000000     0.00000000
       4       1.00000000     3.00000000    -3.00000000    -1.00000000     0.00000000
       5       1.00000000     4.00000000    -6.00000000    -4.00000000     1.00000000
       6       1.00000000     5.00000000   -10.00000000   -10.00000000     5.00000000
       7       1.00000000     6.00000000   -15.00000000   -20.00000000    15.00000000
       8       1.00000000     7.00000000   -21.00000000   -35.00000000    35.00000000

               Column   6     Column   7     Column   8
       6       1.00000000     0.00000000     0.00000000
       7       6.00000000    -1.00000000     0.00000000
       8      21.00000000    -7.00000000    -1.00000000
    ==== End of matrix output ====


                  +----------------------------------------------+
                  ! Cartesian to spherical transformation matrix !
                  +----------------------------------------------+

                              Moment order: 7

               Column   1     Column   2     Column   3     Column   4     Column   5
       2       0.01232517     0.00000000    -0.00646014     0.00000000     0.00350605
       5       0.00000000     0.03952847     0.00000000    -0.03100868     0.00000000
       7      -0.06162583     0.00000000     0.00646014     0.00000000     0.00584342
       9       0.00000000     0.00000000     0.07752171     0.00000000    -0.07012102
      12       0.00000000    -0.13176157     0.00000000     0.00000000     0.00000000
      14       0.00000000     0.00000000     0.00000000     0.10336228     0.00000000
      16       0.03697550     0.00000000     0.01162826     0.00000000     0.00116868
      18       0.00000000     0.00000000    -0.15504342     0.00000000    -0.04674735
      20       0.00000000     0.00000000     0.00000000     0.00000000     0.09349470
      23       0.00000000     0.03952847     0.00000000     0.03100868     0.00000000
      25       0.00000000     0.00000000     0.00000000    -0.10336228     0.00000000
      29      -0.00176074     0.00000000    -0.00129203     0.00000000    -0.00116868
      31       0.00000000     0.00000000     0.01550434     0.00000000     0.02337367
      33       0.00000000     0.00000000     0.00000000     0.00000000    -0.03116490

               Column   6     Column   7     Column   8     Column   9     Column  10
       1       0.00000000     0.00000000     0.00000000    -0.00112457     0.00000000
       2       0.00000000    -0.00112457     0.00000000     0.00000000     0.00000000
       3       0.00000000     0.00000000    -0.00595065     0.00000000     0.00826384
       4       0.00000000     0.00000000     0.00000000    -0.00337370     0.00000000
       5       0.01652768     0.00000000     0.00000000     0.00000000     0.00000000
       6       0.00000000     0.00000000     0.00000000     0.02698959     0.00000000
       7       0.00000000    -0.00337370     0.00000000     0.00000000     0.00000000
       8       0.00000000     0.00000000    -0.01785194     0.00000000     0.00826384
       9       0.00000000     0.02698959     0.00000000     0.00000000     0.00000000
      10       0.00000000     0.00000000     0.03570388     0.00000000    -0.04407382
      11       0.00000000     0.00000000     0.00000000    -0.00337370     0.00000000
      12       0.03305537     0.00000000     0.00000000     0.00000000     0.00000000
      13       0.00000000     0.00000000     0.00000000     0.05397919     0.00000000
      14      -0.08814765     0.00000000     0.00000000     0.00000000     0.00000000
      15       0.00000000     0.00000000     0.00000000    -0.05397919     0.00000000
      16       0.00000000    -0.00337370     0.00000000     0.00000000     0.00000000
      17       0.00000000     0.00000000    -0.01785194     0.00000000    -0.00826384
      18       0.00000000     0.05397919     0.00000000     0.00000000     0.00000000
      19       0.00000000     0.00000000     0.07140776     0.00000000     0.00000000
      20       0.00000000    -0.05397919     0.00000000     0.00000000     0.00000000
      21       0.00000000     0.00000000    -0.02856310     0.00000000     0.02644429
      22       0.00000000     0.00000000     0.00000000    -0.00112457     0.00000000
      23       0.01652768     0.00000000     0.00000000     0.00000000     0.00000000
      24       0.00000000     0.00000000     0.00000000     0.02698959     0.00000000
      25      -0.08814765     0.00000000     0.00000000     0.00000000     0.00000000
      26       0.00000000     0.00000000     0.00000000    -0.05397919     0.00000000
      27       0.05288859     0.00000000     0.00000000     0.00000000     0.00000000
      28       0.00000000     0.00000000     0.00000000     0.01439445     0.00000000
      29       0.00000000    -0.00112457     0.00000000     0.00000000     0.00000000
      30       0.00000000     0.00000000    -0.00595065     0.00000000    -0.00826384
      31       0.00000000     0.02698959     0.00000000     0.00000000     0.00000000
      32       0.00000000     0.00000000     0.03570388     0.00000000     0.04407382
      33       0.00000000    -0.05397919     0.00000000     0.00000000     0.00000000
      34       0.00000000     0.00000000    -0.02856310     0.00000000    -0.02644429
      35       0.00000000     0.01439445     0.00000000     0.00000000     0.00000000
      36       0.00000000     0.00000000     0.00272030     0.00000000     0.00000000

               Column  11     Column  12     Column  13     Column  14     Column  15
       1       0.00116868     0.00000000    -0.00129203     0.00000000     0.00176074
       3       0.00000000    -0.00775217     0.00000000     0.00658808     0.00000000
       4      -0.00116868     0.00000000     0.01162826     0.00000000    -0.03697550
       6      -0.02337367     0.00000000     0.01550434     0.00000000     0.00000000
       8       0.00000000     0.03876085     0.00000000    -0.09882118     0.00000000
      10       0.00000000     0.02584057     0.00000000     0.00000000     0.00000000
      11      -0.00584342     0.00000000     0.00646014     0.00000000     0.06162583
      13       0.04674735     0.00000000    -0.15504342     0.00000000     0.00000000
      15       0.03116490     0.00000000     0.00000000     0.00000000     0.00000000
      17       0.00000000     0.03876085     0.00000000     0.09882118     0.00000000
      19       0.00000000    -0.15504342     0.00000000     0.00000000     0.00000000
      22      -0.00350605     0.00000000    -0.00646014     0.00000000    -0.01232517
      24       0.07012102     0.00000000     0.07752171     0.00000000     0.00000000
      26      -0.09349470     0.00000000     0.00000000     0.00000000     0.00000000
      30       0.00000000    -0.00775217     0.00000000    -0.00658808     0.00000000
      32       0.00000000     0.02584057     0.00000000     0.00000000     0.00000000
    ==== End of matrix output ====


                        Cartesian transformation matrices
                        ---------------------------------

  to spherical harmonics


  Coefficients for angular quantum number     0
  to GTOs with labels:
     1s  

               Column   1
       1       1.00000000
    ==== End of matrix output ====

  Coefficients for angular quantum number     1
  to GTOs with labels:
     2px  2py  2pz 

               Column   1     Column   2     Column   3
       1       1.00000000     0.00000000     0.00000000
       2       0.00000000     1.00000000     0.00000000
       3       0.00000000     0.00000000     1.00000000
    ==== End of matrix output ====

  Coefficients for angular quantum number     2
  to GTOs with labels:
     3d2- 3d1- 3d0  3d1+ 3d2+

               Column   1     Column   2     Column   3     Column   4     Column   5
       1       0.00000000     1.00000000     0.00000000     0.00000000     0.00000000
       2       0.00000000     0.00000000     0.00000000     0.00000000     1.00000000
       3      -0.28867513     0.00000000     0.00000000    -0.28867513     0.00000000
       4       0.00000000     0.00000000     1.00000000     0.00000000     0.00000000
       5       0.50000000     0.00000000     0.00000000    -0.50000000     0.00000000

               Column   6
       3       0.57735027
    ==== End of matrix output ====

  Coefficients for angular quantum number     3
  to GTOs with labels:
     4f3- 4f2- 4f1- 4f0  4f1+ 4f2+ 4f3+

               Column   1     Column   2     Column   3     Column   4     Column   5
       1       0.00000000     0.61237244     0.00000000     0.00000000     0.00000000
       2       0.00000000     0.00000000     0.00000000     0.00000000     1.00000000
       3       0.00000000    -0.15811388     0.00000000     0.00000000     0.00000000
       4       0.00000000     0.00000000    -0.38729833     0.00000000     0.00000000
       5      -0.15811388     0.00000000     0.00000000    -0.15811388     0.00000000
       6       0.00000000     0.00000000     0.50000000     0.00000000     0.00000000
       7       0.20412415     0.00000000     0.00000000    -0.61237244     0.00000000

               Column   6     Column   7     Column   8     Column   9     Column  10
       1       0.00000000    -0.20412415     0.00000000     0.00000000     0.00000000
       3       0.00000000    -0.15811388     0.00000000     0.63245553     0.00000000
       4       0.00000000     0.00000000    -0.38729833     0.00000000     0.25819889
       5       0.63245553     0.00000000     0.00000000     0.00000000     0.00000000
       6       0.00000000     0.00000000    -0.50000000     0.00000000     0.00000000
    ==== End of matrix output ====

  Coefficients for angular quantum number     4
  to GTOs with labels:
     5g4- 5g3- 5g2- 5g1- 5g0  5g1+ 5g2+ 5g3+ 5g4+

               Column   1     Column   2     Column   3     Column   4     Column   5
       1       0.00000000     0.28867513     0.00000000     0.00000000     0.00000000
       2       0.00000000     0.00000000     0.00000000     0.00000000     0.61237244
       3       0.00000000    -0.10910895     0.00000000     0.00000000     0.00000000
       4       0.00000000     0.00000000     0.00000000     0.00000000    -0.23145502
       5       0.03659625     0.00000000     0.00000000     0.07319251     0.00000000
       6       0.00000000     0.00000000    -0.23145502     0.00000000     0.00000000
       7      -0.05455447     0.00000000     0.00000000     0.00000000     0.00000000
       8       0.00000000     0.00000000     0.20412415     0.00000000     0.00000000
       9       0.07216878     0.00000000     0.00000000    -0.43301270     0.00000000

               Column   6     Column   7     Column   8     Column   9     Column  10
       1       0.00000000    -0.28867513     0.00000000     0.00000000     0.00000000
       3       0.00000000    -0.10910895     0.00000000     0.65465367     0.00000000
       5      -0.29277002     0.00000000     0.00000000     0.00000000     0.00000000
       6       0.00000000     0.00000000    -0.23145502     0.00000000     0.30860670
       7       0.32732684     0.00000000     0.00000000     0.00000000     0.00000000
       8       0.00000000     0.00000000    -0.61237244     0.00000000     0.00000000

               Column  11     Column  12     Column  13     Column  14     Column  15
       2       0.00000000    -0.20412415     0.00000000     0.00000000     0.00000000
       4       0.00000000    -0.23145502     0.00000000     0.30860670     0.00000000
       5       0.03659625     0.00000000    -0.29277002     0.00000000     0.09759001
       7       0.05455447     0.00000000    -0.32732684     0.00000000     0.00000000
       9       0.07216878     0.00000000     0.00000000     0.00000000     0.00000000
    ==== End of matrix output ====

  Coefficients for angular quantum number     5
  to GTOs with labels:
     6h5- 6h4- 6h3- 6h2- 6h1- 6h0  6h1+ 6h2+ 6h3+ 6h4+ 6h5+

               Column   1     Column   2     Column   3     Column   4     Column   5
       1       0.00000000     0.11410887     0.00000000     0.00000000     0.00000000
       2       0.00000000     0.00000000     0.00000000     0.00000000     0.28867513
       3       0.00000000    -0.05103104     0.00000000     0.00000000     0.00000000
       4       0.00000000     0.00000000     0.00000000     0.00000000    -0.16666667
       5       0.00000000     0.01574852     0.00000000     0.00000000     0.00000000
       6       0.00000000     0.00000000     0.06099375     0.00000000     0.00000000
       7       0.01574852     0.00000000     0.00000000     0.03149704     0.00000000
       8       0.00000000     0.00000000    -0.08333333     0.00000000     0.00000000
       9      -0.01701035     0.00000000     0.00000000     0.03402069     0.00000000
      10       0.00000000     0.00000000     0.07216878     0.00000000     0.00000000
      11       0.02282177     0.00000000     0.00000000    -0.22821773     0.00000000

               Column   6     Column   7     Column   8     Column   9     Column  10
       1       0.00000000    -0.22821773     0.00000000     0.00000000     0.00000000
       3       0.00000000    -0.03402069     0.00000000     0.40824829     0.00000000
       5       0.00000000     0.03149704     0.00000000    -0.18898224     0.00000000
       6       0.00000000     0.00000000     0.12198751     0.00000000    -0.16265001
       7      -0.18898224     0.00000000     0.00000000     0.00000000     0.00000000
       8       0.00000000     0.00000000     0.00000000     0.00000000     0.16666667
       9       0.13608276     0.00000000     0.00000000     0.00000000     0.00000000
      10       0.00000000     0.00000000    -0.43301270     0.00000000     0.00000000

               Column  11     Column  12     Column  13     Column  14     Column  15
       2       0.00000000    -0.28867513     0.00000000     0.00000000     0.00000000
       4       0.00000000    -0.16666667     0.00000000     0.33333333     0.00000000
       7       0.01574852     0.00000000    -0.18898224     0.00000000     0.12598816
       9       0.05103104     0.00000000    -0.40824829     0.00000000     0.00000000
      11       0.11410887     0.00000000     0.00000000     0.00000000     0.00000000

               Column  16     Column  17     Column  18     Column  19     Column  20
       1       0.02282177     0.00000000     0.00000000     0.00000000     0.00000000
       3       0.01701035     0.00000000    -0.13608276     0.00000000     0.00000000
       5       0.01574852     0.00000000    -0.18898224     0.00000000     0.12598816
       6       0.00000000     0.06099375     0.00000000    -0.16265001     0.00000000
       8       0.00000000     0.08333333     0.00000000    -0.16666667     0.00000000
      10       0.00000000     0.07216878     0.00000000     0.00000000     0.00000000

               Column  21
       6       0.03253000
    ==== End of matrix output ====

  Coefficients for angular quantum number     6
  to GTOs with labels:
     7i6- 7i5- 7i4- 7i3- 7i2- 7i1- 7i0  7i1+ 7i2+ 7i3+ 7i4+ 7i5+ 7i6+

               Column   1     Column   2     Column   3     Column   4     Column   5
       1       0.00000000     0.03952847     0.00000000     0.00000000     0.00000000
       2       0.00000000     0.00000000     0.00000000     0.00000000     0.11410887
       3       0.00000000    -0.01946247     0.00000000     0.00000000     0.00000000
       4       0.00000000     0.00000000     0.00000000     0.00000000    -0.07995027
       5       0.00000000     0.00888336     0.00000000     0.00000000     0.00000000
       6       0.00000000     0.00000000     0.00000000     0.00000000     0.02809166
       7      -0.00306505     0.00000000     0.00000000    -0.00919515     0.00000000
       8       0.00000000     0.00000000     0.02809166     0.00000000     0.00000000
       9       0.00444168     0.00000000     0.00000000     0.00444168     0.00000000
      10       0.00000000     0.00000000    -0.02665009     0.00000000     0.00000000
      11      -0.00486562     0.00000000     0.00000000     0.02432809     0.00000000
      12       0.00000000     0.00000000     0.02282177     0.00000000     0.00000000
      13       0.00658808     0.00000000     0.00000000    -0.09882118     0.00000000

               Column   6     Column   7     Column   8     Column   9     Column  10
       1       0.00000000    -0.13176157     0.00000000     0.00000000     0.00000000
       3       0.00000000     0.00000000     0.00000000     0.19462474     0.00000000
       5       0.00000000     0.01776673     0.00000000    -0.14213381     0.00000000
       7       0.05517093     0.00000000     0.00000000     0.00000000     0.00000000
       8       0.00000000     0.00000000     0.05618332     0.00000000    -0.11236664
       9      -0.07106691     0.00000000     0.00000000     0.00000000     0.00000000
      10       0.00000000     0.00000000     0.05330018     0.00000000     0.07106691
      11       0.04865618     0.00000000     0.00000000     0.00000000     0.00000000
      12       0.00000000     0.00000000    -0.22821773     0.00000000     0.00000000

               Column  11     Column  12     Column  13     Column  14     Column  15
       2       0.00000000    -0.22821773     0.00000000     0.00000000     0.00000000
       4       0.00000000    -0.05330018     0.00000000     0.21320072     0.00000000
       6       0.00000000     0.05618332     0.00000000    -0.11236664     0.00000000
       7      -0.00919515     0.00000000     0.11034185     0.00000000    -0.07356124
       9      -0.00444168     0.00000000     0.00000000     0.00000000     0.07106691
      11       0.02432809     0.00000000    -0.29193710     0.00000000     0.00000000
      13       0.09882118     0.00000000     0.00000000     0.00000000     0.00000000

               Column  16     Column  17     Column  18     Column  19     Column  20
       1       0.03952847     0.00000000     0.00000000     0.00000000     0.00000000
       3       0.01946247     0.00000000    -0.19462474     0.00000000     0.00000000
       5       0.00888336     0.00000000    -0.14213381     0.00000000     0.14213381
       8       0.00000000     0.02809166     0.00000000    -0.11236664     0.00000000
      10       0.00000000     0.07995027     0.00000000    -0.21320072     0.00000000
      12       0.00000000     0.11410887     0.00000000     0.00000000     0.00000000

               Column  21     Column  22     Column  23     Column  24     Column  25
       2       0.00000000     0.00000000     0.02282177     0.00000000     0.00000000
       4       0.00000000     0.00000000     0.02665009     0.00000000    -0.07106691
       6       0.00000000     0.00000000     0.02809166     0.00000000    -0.11236664
       7       0.00000000    -0.00306505     0.00000000     0.05517093     0.00000000
       8       0.04494666     0.00000000     0.00000000     0.00000000     0.00000000
       9       0.00000000    -0.00444168     0.00000000     0.07106691     0.00000000
      11       0.00000000    -0.00486562     0.00000000     0.04865618     0.00000000
      13       0.00000000    -0.00658808     0.00000000     0.00000000     0.00000000

               Column  26     Column  27     Column  28
       6       0.00000000     0.04494666     0.00000000
       7      -0.07356124     0.00000000     0.00980816
       9      -0.07106691     0.00000000     0.00000000
    ==== End of matrix output ====

  Coefficients for angular quantum number     7
  to GTOs with labels:
     8k7- 8k6- 8k5- 8k4- 8k3- 8k2- 8k1- 8k0  8k1+ 8k2+ 8k3+ 8k4+ 8k5+ 8k6+ 8k7+

               Column   1     Column   2     Column   3     Column   4     Column   5
       1       0.00000000     0.01232517     0.00000000     0.00000000     0.00000000
       2       0.00000000     0.00000000     0.00000000     0.00000000     0.03952847
       3       0.00000000    -0.00646014     0.00000000     0.00000000     0.00000000
       4       0.00000000     0.00000000     0.00000000     0.00000000    -0.03100868
       5       0.00000000     0.00350605     0.00000000     0.00000000     0.00000000
       6       0.00000000     0.00000000     0.00000000     0.00000000     0.01652768
       7       0.00000000    -0.00112457     0.00000000     0.00000000     0.00000000
       8       0.00000000     0.00000000    -0.00595065     0.00000000     0.00000000
       9      -0.00112457     0.00000000     0.00000000    -0.00337370     0.00000000
      10       0.00000000     0.00000000     0.00826384     0.00000000     0.00000000
      11       0.00116868     0.00000000     0.00000000    -0.00116868     0.00000000
      12       0.00000000     0.00000000    -0.00775217     0.00000000     0.00000000
      13      -0.00129203     0.00000000     0.00000000     0.01162826     0.00000000
      14       0.00000000     0.00000000     0.00658808     0.00000000     0.00000000
      15       0.00176074     0.00000000     0.00000000    -0.03697550     0.00000000

               Column   6     Column   7     Column   8     Column   9     Column  10
       1       0.00000000    -0.06162583     0.00000000     0.00000000     0.00000000
       3       0.00000000     0.00646014     0.00000000     0.07752171     0.00000000
       5       0.00000000     0.00584342     0.00000000    -0.07012102     0.00000000
       7       0.00000000    -0.00337370     0.00000000     0.02698959     0.00000000
       8       0.00000000     0.00000000    -0.01785194     0.00000000     0.03570388
       9       0.02698959     0.00000000     0.00000000     0.00000000     0.00000000
      10       0.00000000     0.00000000     0.00826384     0.00000000    -0.04407382
      11      -0.02337367     0.00000000     0.00000000     0.00000000     0.00000000
      12       0.00000000     0.00000000     0.03876085     0.00000000     0.02584057
      13       0.01550434     0.00000000     0.00000000     0.00000000     0.00000000
      14       0.00000000     0.00000000    -0.09882118     0.00000000     0.00000000

               Column  11     Column  12     Column  13     Column  14     Column  15
       2       0.00000000    -0.13176157     0.00000000     0.00000000     0.00000000
       4       0.00000000     0.00000000     0.00000000     0.10336228     0.00000000
       6       0.00000000     0.03305537     0.00000000    -0.08814765     0.00000000
       9      -0.00337370     0.00000000     0.05397919     0.00000000    -0.05397919
      11      -0.00584342     0.00000000     0.04674735     0.00000000     0.03116490
      13       0.00646014     0.00000000    -0.15504342     0.00000000     0.00000000
      15       0.06162583     0.00000000     0.00000000     0.00000000     0.00000000

               Column  16     Column  17     Column  18     Column  19     Column  20
       1       0.03697550     0.00000000     0.00000000     0.00000000     0.00000000
       3       0.01162826     0.00000000    -0.15504342     0.00000000     0.00000000
       5       0.00116868     0.00000000    -0.04674735     0.00000000     0.09349470
       7      -0.00337370     0.00000000     0.05397919     0.00000000    -0.05397919
       8       0.00000000    -0.01785194     0.00000000     0.07140776     0.00000000
      10       0.00000000    -0.00826384     0.00000000     0.00000000     0.00000000
      12       0.00000000     0.03876085     0.00000000    -0.15504342     0.00000000
      14       0.00000000     0.09882118     0.00000000     0.00000000     0.00000000

               Column  21     Column  22     Column  23     Column  24     Column  25
       2       0.00000000     0.00000000     0.03952847     0.00000000     0.00000000
       4       0.00000000     0.00000000     0.03100868     0.00000000    -0.10336228
       6       0.00000000     0.00000000     0.01652768     0.00000000    -0.08814765
       8      -0.02856310     0.00000000     0.00000000     0.00000000     0.00000000
       9       0.00000000    -0.00112457     0.00000000     0.02698959     0.00000000
      10       0.02644429     0.00000000     0.00000000     0.00000000     0.00000000
      11       0.00000000    -0.00350605     0.00000000     0.07012102     0.00000000
      13       0.00000000    -0.00646014     0.00000000     0.07752171     0.00000000
      15       0.00000000    -0.01232517     0.00000000     0.00000000     0.00000000

               Column  26     Column  27     Column  28     Column  29     Column  30
       1       0.00000000     0.00000000     0.00000000    -0.00176074     0.00000000
       3       0.00000000     0.00000000     0.00000000    -0.00129203     0.00000000
       5       0.00000000     0.00000000     0.00000000    -0.00116868     0.00000000
       6       0.00000000     0.05288859     0.00000000     0.00000000     0.00000000
       7       0.00000000     0.00000000     0.00000000    -0.00112457     0.00000000
       8       0.00000000     0.00000000     0.00000000     0.00000000    -0.00595065
       9      -0.05397919     0.00000000     0.01439445     0.00000000     0.00000000
      10       0.00000000     0.00000000     0.00000000     0.00000000    -0.00826384
      11      -0.09349470     0.00000000     0.00000000     0.00000000     0.00000000
      12       0.00000000     0.00000000     0.00000000     0.00000000    -0.00775217
      14       0.00000000     0.00000000     0.00000000     0.00000000    -0.00658808

               Column  31     Column  32     Column  33     Column  34     Column  35
       3       0.01550434     0.00000000     0.00000000     0.00000000     0.00000000
       5       0.02337367     0.00000000    -0.03116490     0.00000000     0.00000000
       7       0.02698959     0.00000000    -0.05397919     0.00000000     0.01439445
       8       0.00000000     0.03570388     0.00000000    -0.02856310     0.00000000
      10       0.00000000     0.04407382     0.00000000    -0.02644429     0.00000000
      12       0.00000000     0.02584057     0.00000000     0.00000000     0.00000000

               Column  36
       8       0.00272030
    ==== End of matrix output ====

  Atomic type no.    1
  --------------------
  Nuclear charge:  26.00000
  Number of symmetry independent centers:    1
   Symmetry independent centers:
      Fe     0.000920000000000   0.000000000000000   0.377890000000000
  Number of basis sets to read;    2
 BASLIB: Q, QEFF, INTQ   26.000000000000000        26.000000000000000               26
 BASLIB: BASNAM cc-pVDZ-DK                                                                      


                                Output from BASLIB
                                ------------------

 ISTART =          12
 BASTMP = cc-pVDZ-DK                                                                      
 IPOLST =           0
 POLFUN = F
 ANO    = F
 SADLEJ = F
 NQVD   = F
  Basis set file used for this atomic type with Z =  26 :
  Trying file: "/mnt/c/Users/kjellgren/Desktop/calc/cc-pVDZ-DK"
  Trying file: "/home/kjellgren/dalton/build/basis/cc-pVDZ-DK"
     "/home/kjellgren/dalton/build/basis/cc-pVDZ-DK"

  Output from FIND_POS... read INTEXP, INTORB, INTISG        20         6         0


                               Output from READ_NU
                               -------------------

 INTEXP,INTORB,NBLOCK:          20           6           1
 IPRINT=          10
 READ_NU read - J,NBLOCK,ALPHA(J,NBLOCK)           1           1   4316265.0000000000     
 READ_NU read - CPRIMU:   1.3999999999999999E-004  -7.2000000000000002E-005   1.7000000000000000E-005  -3.9999999999999998E-006  -6.9999999999999999E-006   0.0000000000000000     
 READ_NU read - J,NBLOCK,ALPHA(J,NBLOCK)           2           1   646342.40000000002     
 READ_NU read - CPRIMU:   4.0499999999999998E-004  -2.0900000000000001E-004   4.8999999999999998E-005  -1.1000000000000000E-005  -2.0999999999999999E-005   0.0000000000000000     
 READ_NU read - J,NBLOCK,ALPHA(J,NBLOCK)           3           1   147089.70000000001     
 READ_NU read - CPRIMU:   1.1190000000000000E-003  -5.7899999999999998E-004   1.3500000000000000E-004  -2.9000000000000000E-005  -5.8000000000000000E-005   0.0000000000000000     
 READ_NU read - J,NBLOCK,ALPHA(J,NBLOCK)           4           1   41661.519999999997     
 READ_NU read - CPRIMU:   2.9069999999999999E-003  -1.5060000000000000E-003   3.5199999999999999E-004  -7.7000000000000001E-005  -1.5500000000000000E-004   0.0000000000000000     
 READ_NU read - J,NBLOCK,ALPHA(J,NBLOCK)           5           1   13590.770000000000     
 READ_NU read - CPRIMU:   7.5709999999999996E-003  -3.9389999999999998E-003   9.2299999999999999E-004  -2.0100000000000001E-004  -3.9300000000000001E-004   0.0000000000000000     
 READ_NU read - J,NBLOCK,ALPHA(J,NBLOCK)           6           1   4905.7500000000000     
 READ_NU read - CPRIMU:   1.9817999999999999E-002  -1.0396000000000001E-002   2.4520000000000002E-003  -5.3499999999999999E-004  -1.1010000000000000E-003   0.0000000000000000     
 READ_NU read - J,NBLOCK,ALPHA(J,NBLOCK)           7           1   1912.7460000000001     
 READ_NU read - CPRIMU:   5.0734000000000001E-002  -2.7074000000000001E-002   6.4510000000000001E-003  -1.4080000000000000E-003  -2.6930000000000001E-003   0.0000000000000000     
 READ_NU read - J,NBLOCK,ALPHA(J,NBLOCK)           8           1   792.60429999999997     
 READ_NU read - CPRIMU:  0.11872900000000000       -6.5777000000000002E-002   1.6105999999999999E-002  -3.5179999999999999E-003  -7.4040000000000000E-003   0.0000000000000000     
 READ_NU read - J,NBLOCK,ALPHA(J,NBLOCK)           9           1   344.80650000000003     
 READ_NU read - CPRIMU:  0.23116400000000001      -0.13908200000000001        3.5742000000000003E-002  -7.8139999999999998E-003  -1.4484000000000000E-002   0.0000000000000000     
 READ_NU read - J,NBLOCK,ALPHA(J,NBLOCK)          10           1   155.89990000000000     
 READ_NU read - CPRIMU:  0.31932199999999999      -0.23014999999999999        6.5528000000000003E-002  -1.4371999999999999E-002  -3.1852999999999999E-002   0.0000000000000000     
 READ_NU read - J,NBLOCK,ALPHA(J,NBLOCK)          11           1   72.230909999999994     
 READ_NU read - CPRIMU:  0.23364799999999999      -0.22966300000000001        7.4429999999999996E-002  -1.6383000000000002E-002  -2.5352000000000000E-002   0.0000000000000000     
 READ_NU read - J,NBLOCK,ALPHA(J,NBLOCK)          12           1   32.725059999999999     
 READ_NU read - CPRIMU:   7.4022000000000004E-002   4.6091000000000000E-002  -2.5711000000000001E-002   5.6429999999999996E-003  -7.8869999999999999E-003   0.0000000000000000     
 READ_NU read - J,NBLOCK,ALPHA(J,NBLOCK)          13           1   15.667619999999999     
 READ_NU read - CPRIMU:   9.0952000000000005E-002  0.51505100000000004      -0.30864500000000000        7.1221000000000007E-002  0.19147000000000000        0.0000000000000000     
 READ_NU read - J,NBLOCK,ALPHA(J,NBLOCK)          14           1   7.5034830000000001     
 READ_NU read - CPRIMU:   8.8898000000000005E-002  0.48717500000000002      -0.44654400000000000       0.10780000000000001       0.14824200000000001        0.0000000000000000     
 READ_NU read - J,NBLOCK,ALPHA(J,NBLOCK)          15           1   3.3122229999999999     
 READ_NU read - CPRIMU:   1.4302000000000000E-002   8.4379999999999997E-002  0.14898500000000001       -4.4262000000000003E-002   5.0761000000000001E-002   0.0000000000000000     
 READ_NU read - J,NBLOCK,ALPHA(J,NBLOCK)          16           1   1.5584709999999999     
 READ_NU read - CPRIMU:  -3.8699999999999997E-004  -5.9109999999999996E-003  0.72039500000000001      -0.22599900000000001       -1.0122460000000000        0.0000000000000000     
 READ_NU read - J,NBLOCK,ALPHA(J,NBLOCK)          17           1  0.68391400000000002     
 READ_NU read - CPRIMU:   7.9999999999999996E-006  -4.3999999999999999E-005  0.38969799999999999      -0.23762800000000001       0.34233900000000000        0.0000000000000000     
 READ_NU read - J,NBLOCK,ALPHA(J,NBLOCK)          18           1  0.14675700000000000     
 READ_NU read - CPRIMU:  -2.5000000000000001E-005  -4.8700000000000002E-004   1.9184000000000000E-002  0.29777999999999999        1.8572660000000001        0.0000000000000000     
 READ_NU read - J,NBLOCK,ALPHA(J,NBLOCK)          19           1   7.0583000000000007E-002
 READ_NU read - CPRIMU:   3.1999999999999999E-005   4.3700000000000000E-004  -7.0229999999999997E-003  0.56549700000000003       -1.0636790000000000        0.0000000000000000     
 READ_NU read - J,NBLOCK,ALPHA(J,NBLOCK)          20           1   3.1448999999999998E-002
 READ_NU read - CPRIMU:   0.0000000000000000        0.0000000000000000        0.0000000000000000        0.0000000000000000        0.0000000000000000        1.0000000000000000     
 READ_NU...NBLOCK,INTEXP=           1          20
   4316265.0000000000        646342.40000000002        147089.70000000001        41661.519999999997        13590.770000000000        4905.7500000000000        1912.7460000000001        792.60429999999997        344.80650000000003        155.89990000000000        72.230909999999994        32.725059999999999        15.667619999999999        7.5034830000000001        3.3122229999999999        1.5584709999999999       0.68391400000000002       0.14675700000000000        7.0583000000000007E-002   3.1448999999999998E-002

  Output from FIND_POS... read INTEXP, INTORB, INTISG        16         5         0


                               Output from READ_NU
                               -------------------

 INTEXP,INTORB,NBLOCK:          16           5           2
 IPRINT=          10
 READ_NU read - J,NBLOCK,ALPHA(J,NBLOCK)           1           2   17745.689999999999     
 READ_NU read - CPRIMU:   1.2300000000000001E-004  -4.3000000000000002E-005   9.0000000000000002E-006   1.4000000000000000E-005   0.0000000000000000     
 READ_NU read - J,NBLOCK,ALPHA(J,NBLOCK)           2           2   4200.7209999999995     
 READ_NU read - CPRIMU:   5.6599999999999999E-004  -2.0000000000000001E-004   4.3999999999999999E-005   6.6000000000000005E-005   0.0000000000000000     
 READ_NU read - J,NBLOCK,ALPHA(J,NBLOCK)           3           2   1364.4290000000001     
 READ_NU read - CPRIMU:   2.6080000000000001E-003  -9.2299999999999999E-004   2.0100000000000001E-004   3.0299999999999999E-004   0.0000000000000000     
 READ_NU read - J,NBLOCK,ALPHA(J,NBLOCK)           4           2   522.08060000000000     
 READ_NU read - CPRIMU:   1.0295000000000000E-002  -3.6679999999999998E-003   8.0000000000000004E-004   1.2190000000000000E-003   0.0000000000000000     
 READ_NU read - J,NBLOCK,ALPHA(J,NBLOCK)           5           2   221.45949999999999     
 READ_NU read - CPRIMU:   3.4750999999999997E-002  -1.2539000000000000E-002   2.7380000000000000E-003   4.1200000000000004E-003   0.0000000000000000     
 READ_NU read - J,NBLOCK,ALPHA(J,NBLOCK)           6           2   100.90960000000000     
 READ_NU read - CPRIMU:   9.6689999999999998E-002  -3.5847999999999998E-002   7.8480000000000008E-003   1.1953000000000000E-002   0.0000000000000000     
 READ_NU read - J,NBLOCK,ALPHA(J,NBLOCK)           7           2   48.401150000000001     
 READ_NU read - CPRIMU:  0.21002999999999999       -8.0822000000000005E-002   1.7739000000000001E-002   2.6620000000000001E-002   0.0000000000000000     
 READ_NU read - J,NBLOCK,ALPHA(J,NBLOCK)           8           2   23.985360000000000     
 READ_NU read - CPRIMU:  0.33245700000000000      -0.13469700000000001        2.9749000000000001E-002   4.5698999999999997E-002   0.0000000000000000     
 READ_NU read - J,NBLOCK,ALPHA(J,NBLOCK)           9           2   12.182499999999999     
 READ_NU read - CPRIMU:  0.33077099999999998      -0.13691200000000001        3.0388999999999999E-002   4.5032999999999997E-002   0.0000000000000000     
 READ_NU read - J,NBLOCK,ALPHA(J,NBLOCK)          10           2   6.2422979999999999     
 READ_NU read - CPRIMU:  0.15473300000000001        3.3713000000000000E-002  -1.0765000000000000E-002  -1.3011000000000000E-002   0.0000000000000000     
 READ_NU read - J,NBLOCK,ALPHA(J,NBLOCK)          11           2   3.1109439999999999     
 READ_NU read - CPRIMU:   2.0964000000000000E-002  0.33567000000000002       -8.7689000000000003E-002 -0.14137500000000000        0.0000000000000000     
 READ_NU read - J,NBLOCK,ALPHA(J,NBLOCK)          12           2   1.5099579999999999     
 READ_NU read - CPRIMU:  -2.3460000000000000E-003  0.45549600000000001      -0.12847000000000000      -0.19414799999999999        0.0000000000000000     
 READ_NU read - J,NBLOCK,ALPHA(J,NBLOCK)          13           2  0.71084499999999995     
 READ_NU read - CPRIMU:  -1.8540000000000000E-003  0.28176000000000001       -7.3996000000000006E-002 -0.10177000000000000        0.0000000000000000     
 READ_NU read - J,NBLOCK,ALPHA(J,NBLOCK)          14           2  0.27259800000000001     
 READ_NU read - CPRIMU:  -3.1700000000000001E-004   4.5150000000000003E-002  0.21545500000000001       0.46786400000000000        0.0000000000000000     
 READ_NU read - J,NBLOCK,ALPHA(J,NBLOCK)          15           2  0.10397199999999999     
 READ_NU read - CPRIMU:   3.0000000000000001E-005  -3.1649999999999998E-003  0.57200499999999999       0.62421800000000005        0.0000000000000000     
 READ_NU read - J,NBLOCK,ALPHA(J,NBLOCK)          16           2   3.8165999999999999E-002
 READ_NU read - CPRIMU:   0.0000000000000000        0.0000000000000000        0.0000000000000000        0.0000000000000000        1.0000000000000000     
 READ_NU...NBLOCK,INTEXP=           2          16
   17745.689999999999        4200.7209999999995        1364.4290000000001        522.08060000000000        221.45949999999999        100.90960000000000        48.401150000000001        23.985360000000000        12.182499999999999        6.2422979999999999        3.1109439999999999        1.5099579999999999       0.71084499999999995       0.27259800000000001       0.10397199999999999        3.8165999999999999E-002

  Output from FIND_POS... read INTEXP, INTORB, INTISG         8         3         0


                               Output from READ_NU
                               -------------------

 INTEXP,INTORB,NBLOCK:           8           3           3
 IPRINT=          10
 READ_NU read - J,NBLOCK,ALPHA(J,NBLOCK)           1           3   114.88400000000000     
 READ_NU read - CPRIMU:   3.5320000000000000E-003  -3.8960000000000002E-003   0.0000000000000000     
 READ_NU read - J,NBLOCK,ALPHA(J,NBLOCK)           2           3   33.887799999999999     
 READ_NU read - CPRIMU:   2.5550000000000000E-002  -2.8206999999999999E-002   0.0000000000000000     
 READ_NU read - J,NBLOCK,ALPHA(J,NBLOCK)           3           3   12.372999999999999     
 READ_NU read - CPRIMU:   9.8357000000000000E-002 -0.11157300000000001        0.0000000000000000     
 READ_NU read - J,NBLOCK,ALPHA(J,NBLOCK)           4           3   4.9992500000000000     
 READ_NU read - CPRIMU:  0.23791899999999999      -0.27283900000000000        0.0000000000000000     
 READ_NU read - J,NBLOCK,ALPHA(J,NBLOCK)           5           3   2.0704300000000000     
 READ_NU read - CPRIMU:  0.35653899999999999      -0.31715199999999999        0.0000000000000000     
 READ_NU read - J,NBLOCK,ALPHA(J,NBLOCK)           6           3  0.82818300000000000     
 READ_NU read - CPRIMU:  0.36284800000000000        5.2061999999999997E-002   0.0000000000000000     
 READ_NU read - J,NBLOCK,ALPHA(J,NBLOCK)           7           3  0.30754700000000001     
 READ_NU read - CPRIMU:  0.23880299999999999       0.56126900000000002        0.0000000000000000     
 READ_NU read - J,NBLOCK,ALPHA(J,NBLOCK)           8           3   9.9455000000000002E-002
 READ_NU read - CPRIMU:   0.0000000000000000        0.0000000000000000        1.0000000000000000     
 READ_NU...NBLOCK,INTEXP=           3           8
   114.88400000000000        33.887799999999999        12.372999999999999        4.9992500000000000        2.0704300000000000       0.82818300000000000       0.30754700000000001        9.9455000000000002E-002

  Output from FIND_POS... read INTEXP, INTORB, INTISG         2         1         0


                               Output from READ_NU
                               -------------------

 INTEXP,INTORB,NBLOCK:           2           1           4
 IPRINT=          10
 READ_NU read - J,NBLOCK,ALPHA(J,NBLOCK)           1           4   3.2242999999999999     
 READ_NU read - CPRIMU:  0.42224899999999999     
 READ_NU read - J,NBLOCK,ALPHA(J,NBLOCK)           2           4  0.77580000000000005     
 READ_NU read - CPRIMU:  0.77146800000000004     
 READ_NU...NBLOCK,INTEXP=           4           2
   3.2242999999999999       0.77580000000000005     

  Output from FIND_POS: Reached end of file

  Info about the basis set file: your basis has no documentation.
  Basis set: cc-pVDZ-DK                                                                      
  Basis set:
      Max.ang.quantum no.:    3  Blocks:    1    1    1    1
 BASLIB: Q, QEFF, INTQ   26.000000000000000        26.000000000000000               26
 BASLIB: BASNAM HUCKEL                                                                          
  Basis set file used for this atomic type with Z =  26 :
  Trying file: "/mnt/c/Users/kjellgren/Desktop/calc/ano-4"
  Trying file: "/home/kjellgren/dalton/build/basis/ano-4"
     "/home/kjellgren/dalton/build/basis/ano-4"
  Basis set:
      Max.ang.quantum no.:    2  Blocks:    1    1    1

  Atomic type no.    2
  --------------------
  Nuclear charge:   7.00000
  Number of symmetry independent centers:    1
   Symmetry independent centers:
      N      0.000620000000000   0.000000000000000   3.515450000000000
  Number of basis sets to read;    2
 BASLIB: Q, QEFF, INTQ   7.0000000000000000        7.0000000000000000                7
 BASLIB: BASNAM cc-pVDZ-DK                                                                      


                                Output from BASLIB
                                ------------------

 ISTART =          12
 BASTMP = cc-pVDZ-DK                                                                      
 IPOLST =           0
 POLFUN = F
 ANO    = F
 SADLEJ = F
 NQVD   = F
  Basis set file used for this atomic type with Z =   7 :
  Trying file: "/mnt/c/Users/kjellgren/Desktop/calc/cc-pVDZ-DK"
  Trying file: "/home/kjellgren/dalton/build/basis/cc-pVDZ-DK"
     "/home/kjellgren/dalton/build/basis/cc-pVDZ-DK"

  Output from FIND_POS... read INTEXP, INTORB, INTISG         9         3         0


                               Output from READ_NU
                               -------------------

 INTEXP,INTORB,NBLOCK:           9           3           1
 IPRINT=          10
 READ_NU read - J,NBLOCK,ALPHA(J,NBLOCK)           1           1   9046.0000000000000     
 READ_NU read - CPRIMU:   9.1060000000000002E-004  -1.9950000000000000E-004   0.0000000000000000     
 READ_NU read - J,NBLOCK,ALPHA(J,NBLOCK)           2           1   1357.0000000000000     
 READ_NU read - CPRIMU:   5.6443999999999999E-003  -1.2669000000000001E-003   0.0000000000000000     
 READ_NU read - J,NBLOCK,ALPHA(J,NBLOCK)           3           1   309.30000000000001     
 READ_NU read - CPRIMU:   2.7807200000000001E-002  -6.0905999999999998E-003   0.0000000000000000     
 READ_NU read - J,NBLOCK,ALPHA(J,NBLOCK)           4           1   87.730000000000004     
 READ_NU read - CPRIMU:  0.10368049999999999       -2.4697000000000000E-002   0.0000000000000000     
 READ_NU read - J,NBLOCK,ALPHA(J,NBLOCK)           5           1   28.559999999999999     
 READ_NU read - CPRIMU:  0.27901419999999999       -6.7602800000000005E-002   0.0000000000000000     
 READ_NU read - J,NBLOCK,ALPHA(J,NBLOCK)           6           1   10.210000000000001     
 READ_NU read - CPRIMU:  0.44822160000000000      -0.15823350000000000        0.0000000000000000     
 READ_NU read - J,NBLOCK,ALPHA(J,NBLOCK)           7           1   3.8380000000000001     
 READ_NU read - CPRIMU:  0.27773730000000002      -0.12120599999999999        0.0000000000000000     
 READ_NU read - J,NBLOCK,ALPHA(J,NBLOCK)           8           1  0.74660000000000004     
 READ_NU read - CPRIMU:   1.5399299999999999E-002  0.54988709999999996        0.0000000000000000     
 READ_NU read - J,NBLOCK,ALPHA(J,NBLOCK)           9           1  0.22480000000000000     
 READ_NU read - CPRIMU:   0.0000000000000000        0.0000000000000000        1.0000000000000000     
 READ_NU...NBLOCK,INTEXP=           1           9
   9046.0000000000000        1357.0000000000000        309.30000000000001        87.730000000000004        28.559999999999999        10.210000000000001        3.8380000000000001       0.74660000000000004       0.22480000000000000     

  Output from FIND_POS... read INTEXP, INTORB, INTISG         4         2         0


                               Output from READ_NU
                               -------------------

 INTEXP,INTORB,NBLOCK:           4           2           2
 IPRINT=          10
 READ_NU read - J,NBLOCK,ALPHA(J,NBLOCK)           1           2   13.550000000000001     
 READ_NU read - CPRIMU:   4.0010299999999999E-002   0.0000000000000000     
 READ_NU read - J,NBLOCK,ALPHA(J,NBLOCK)           2           2   2.9169999999999998     
 READ_NU read - CPRIMU:  0.21721320000000000        0.0000000000000000     
 READ_NU read - J,NBLOCK,ALPHA(J,NBLOCK)           3           2  0.79730000000000001     
 READ_NU read - CPRIMU:  0.51019070000000000        0.0000000000000000     
 READ_NU read - J,NBLOCK,ALPHA(J,NBLOCK)           4           2  0.21850000000000000     
 READ_NU read - CPRIMU:   0.0000000000000000        1.0000000000000000     
 READ_NU...NBLOCK,INTEXP=           2           4
   13.550000000000001        2.9169999999999998       0.79730000000000001       0.21850000000000000     

  Output from FIND_POS... read INTEXP, INTORB, INTISG         1         1         0


                               Output from READ_NU
                               -------------------

 INTEXP,INTORB,NBLOCK:           1           1           3
 IPRINT=          10
 READ_NU read - J,NBLOCK,ALPHA(J,NBLOCK)           1           3  0.81699999999999995     
[...]
  89 C   :2px   -0.1406  -0.1421   0.1161   0.0031   0.0125  -0.0231   0.0329
  90 C   :2py   -0.0809   0.1159  -0.2761  -0.0125  -0.0175  -0.0329  -0.0149
  91 C   :2pz    0.0000  -0.0467   0.0806  -0.0096  -0.0167  -0.0050  -0.0086
  92 C   :2px   -0.0733  -0.0478   0.0178   0.0001   0.0160  -0.0087   0.0143
  93 C   :2py   -0.0423   0.0179  -0.0685  -0.0160  -0.0185  -0.0144  -0.0078
  95 C   :3d2-  -0.0141  -0.0102   0.0048   0.0012   0.0052   0.0137  -0.0101
  96 C   :3d1-   0.0071   0.0019   0.0002  -0.0022  -0.0045   0.0007   0.0153
  97 C   :3d0   -0.0000  -0.0051   0.0089   0.0048   0.0083  -0.0082  -0.0142
  98 C   :3d1+   0.0122   0.0024   0.0020   0.0020   0.0022  -0.0145  -0.0007
  99 C   :3d2+   0.0245   0.0070   0.0102   0.0038   0.0012  -0.0260   0.0137
 102 O   :1s     0.0000  -0.0098  -0.0169   0.0021  -0.0036   0.0004  -0.0006
 103 O   :2px    0.2760  -0.0741   0.1246  -0.0053  -0.0205   0.1023   0.0899
 104 O   :2py   -0.1596   0.1243   0.0687   0.0205  -0.0183  -0.0900   0.0015
 105 O   :2pz   -0.0005   0.1034   0.1797  -0.0454   0.0786   0.0355  -0.0615
 106 O   :2px    0.1870  -0.0536   0.0806  -0.0013  -0.0144   0.0838   0.0716
 107 O   :2py   -0.1082   0.0804   0.0388   0.0144  -0.0154  -0.0717  -0.0011
 108 O   :2pz   -0.0003   0.0673   0.1169  -0.0316   0.0548   0.0300  -0.0520
 113 O   :3d2+   0.0131  -0.0068   0.0005  -0.0007   0.0003   0.0023   0.0007
 116 O   :1s    -0.0000  -0.0098   0.0169   0.0021   0.0036   0.0004   0.0006
 117 O   :2px   -0.2760  -0.0741  -0.1246  -0.0053   0.0205   0.1023  -0.0899
 118 O   :2py   -0.1596  -0.1243   0.0687  -0.0205  -0.0183   0.0900   0.0015
 119 O   :2pz    0.0005   0.1034  -0.1797  -0.0454  -0.0786   0.0355   0.0615
 120 O   :2px   -0.1870  -0.0536  -0.0806  -0.0013   0.0144   0.0838  -0.0716
 121 O   :2py   -0.1082  -0.0804   0.0388  -0.0144  -0.0154   0.0717  -0.0011
 122 O   :2pz    0.0003   0.0673  -0.1169  -0.0316  -0.0548   0.0300   0.0520
 127 O   :3d2+  -0.0131  -0.0068  -0.0005  -0.0007  -0.0003   0.0023  -0.0007
 131 O   :2px   -0.0000  -0.0305  -0.0000  -0.4502  -0.0000  -0.1597   0.0000
 132 O   :2py    0.0001   0.0000  -0.0305  -0.0000   0.4501   0.0000   0.1599
 134 O   :2px   -0.0000  -0.0194  -0.0000  -0.3022   0.0000  -0.1273   0.0000
 135 O   :2py    0.0000   0.0000  -0.0194   0.0000   0.3022   0.0000   0.1275
 138 O   :3d1-  -0.0000  -0.0000   0.0024  -0.0000  -0.0280  -0.0000  -0.0063
 140 O   :3d1+   0.0000   0.0024   0.0000   0.0280  -0.0000   0.0063  -0.0000
 144 O   :1s     0.0000   0.0195  -0.0000  -0.0041   0.0000  -0.0007  -0.0000
 145 O   :2px    0.0000   0.1409  -0.0000   0.0301  -0.0000  -0.0535   0.0000
 146 O   :2py    0.3194   0.0000  -0.1454  -0.0000   0.0172  -0.0000  -0.1542
 147 O   :2pz    0.0000  -0.2074   0.0000   0.0909  -0.0000  -0.0710   0.0000
 148 O   :2px    0.0000   0.0855  -0.0000   0.0237  -0.0000  -0.0403   0.0000
 149 O   :2py    0.2165  -0.0000  -0.0997   0.0000   0.0097  -0.0000  -0.1252
 150 O   :2pz    0.0000  -0.1350  -0.0000   0.0633   0.0000  -0.0600   0.0000
 151 O   :3d2-  -0.0151   0.0000   0.0070   0.0000  -0.0006  -0.0000   0.0027
 154 O   :3d1+   0.0000   0.0123   0.0000  -0.0031  -0.0000   0.0006  -0.0000

    Orbital        40       41       42       43       44       45       46
   1 Fe  :1s     0.0029   0.0000   0.0000  -0.0529   0.0000  -0.0000   0.0076
   2 Fe  :1s     0.0082   0.0000   0.0000  -0.1588   0.0000  -0.0000   0.0228
   3 Fe  :1s     0.0440   0.0001   0.0000  -0.7646   0.0001  -0.0000   0.1135
   4 Fe  :1s     0.0053   0.0002   0.0000  -1.7253   0.0003   0.0000   0.2638
   5 Fe  :1s    -0.0115   0.0000  -0.0000   0.0055   0.0001  -0.0000   0.0006
   6 Fe  :1s    -0.0229  -0.0002   0.0000   2.2099  -0.0006   0.0000  -0.6251
   9 Fe  :2pz   -0.0001  -0.0000  -0.0000   0.0033   0.0000  -0.0000   0.0176
  10 Fe  :2px   -0.0000   0.0042   0.0000  -0.0001  -0.1509   0.0000   0.0002
  11 Fe  :2py   -0.0000  -0.0000   0.0043  -0.0000   0.0000   0.1510  -0.0000
  12 Fe  :2pz    0.0304  -0.0000  -0.0000   0.0497   0.0001  -0.0000   0.2854
  13 Fe  :2px   -0.0001  -0.7353   0.0000  -0.0012  -1.8003   0.0000   0.0016
  14 Fe  :2py    0.0000  -0.0000  -0.7349  -0.0000   0.0000   1.8025  -0.0000
  15 Fe  :2pz   -0.4781  -0.0004  -0.0000   0.7663   0.0011  -0.0000   2.3695
  16 Fe  :2px    0.0001   0.3540  -0.0000   0.0009   1.1855  -0.0000  -0.0010
  17 Fe  :2py   -0.0000   0.0000   0.3537   0.0000  -0.0000  -1.1871   0.0000
  18 Fe  :2pz    0.1363   0.0003   0.0000  -0.5094  -0.0007   0.0000  -1.3585
  19 Fe  :2px   -0.0000  -0.0667  -0.0000  -0.0001   1.4701  -0.0000  -0.0004
  20 Fe  :2py   -0.0000   0.0000  -0.0669  -0.0000  -0.0000  -1.4703  -0.0000
  21 Fe  :2pz   -0.0096  -0.0000  -0.0000  -0.6821  -0.0002  -0.0000  -1.4009
  22 Fe  :3d2-   0.0000  -0.0000  -0.2999  -0.0000  -0.0000   0.1342   0.0000
  23 Fe  :3d1-  -0.0000  -0.0000  -0.3426  -0.0000  -0.0000  -0.1237   0.0000
  24 Fe  :3d0    0.7263   0.0001  -0.0000  -0.0382   0.0000  -0.0000  -0.2471
  25 Fe  :3d1+   0.0001  -0.3425   0.0000   0.0001   0.1239  -0.0000  -0.0000
  26 Fe  :3d2+   0.0000   0.2996  -0.0000   0.0002   0.1342   0.0000   0.0000
  27 Fe  :3d2-   0.0000   0.0000  -0.0116  -0.0000  -0.0000  -0.0107   0.0000
  28 Fe  :3d1-   0.0000  -0.0000  -0.0258   0.0000  -0.0000  -0.0142  -0.0000
  29 Fe  :3d0    0.0043  -0.0000  -0.0000  -0.0120   0.0000  -0.0000   0.0383
  30 Fe  :3d1+   0.0000  -0.0258   0.0000  -0.0000   0.0143  -0.0000  -0.0000
  31 Fe  :3d2+   0.0000   0.0116   0.0000  -0.0000  -0.0107   0.0000   0.0000
  32 Fe  :3d2-   0.0000   0.0000  -0.0529   0.0000  -0.0000  -0.0823   0.0000
  33 Fe  :3d1-   0.0000   0.0000  -0.0221   0.0000  -0.0000   0.2298   0.0000
  34 Fe  :3d0    0.0927  -0.0001   0.0000   0.0312   0.0001  -0.0000   0.2847
  35 Fe  :3d1+   0.0001  -0.0221  -0.0000   0.0003  -0.2301  -0.0000  -0.0002
  36 Fe  :3d2+  -0.0000   0.0529   0.0000   0.0000  -0.0824   0.0000  -0.0000
  44 N   :1s     0.0002  -0.0000   0.0000  -0.0066   0.0000   0.0000   0.0173
  45 N   :1s    -0.0702  -0.0000   0.0000  -0.0236   0.0000   0.0000   0.1036
  46 N   :1s    -0.1490   0.0000  -0.0000  -0.0131  -0.0002  -0.0000   0.0464
  47 N   :2px   -0.0001  -0.2673   0.0000  -0.0001  -0.2298   0.0000   0.0000
  48 N   :2py    0.0000  -0.0000  -0.2670  -0.0000   0.0000   0.2297   0.0000
  49 N   :2pz    0.1237  -0.0001   0.0000   0.0155  -0.0001   0.0000  -0.0878
  50 N   :2px   -0.0000  -0.2262  -0.0000  -0.0001  -0.1642  -0.0000  -0.0001
  51 N   :2py   -0.0000   0.0000  -0.2259  -0.0000  -0.0000   0.1642   0.0000
  52 N   :2pz    0.0162  -0.0000  -0.0000  -0.1603   0.0000  -0.0000   0.4568
  54 N   :3d1-  -0.0000   0.0000   0.0382   0.0000   0.0000  -0.0026  -0.0000
  55 N   :3d0    0.0246   0.0000  -0.0000  -0.0024   0.0000  -0.0000   0.0060
  56 N   :3d1+  -0.0000   0.0382  -0.0000   0.0000   0.0026   0.0000  -0.0000
  59 C   :1s     0.0211  -0.0177   0.0000  -0.0371  -0.0456   0.0000  -0.0184
  60 C   :1s    -0.0106   0.0615  -0.0000  -0.2387  -0.3597  -0.0000   0.0808
  61 C   :2px   -0.0546  -0.0027  -0.0000   0.0301   0.0543  -0.0000  -0.0106
  62 C   :2py   -0.0000  -0.0000  -0.0927  -0.0000  -0.0000  -0.0907  -0.0000
  63 C   :2pz   -0.0587  -0.0452   0.0000  -0.0204   0.0080   0.0000  -0.0478
  64 C   :2px    0.0037  -0.0576   0.0000  -0.2402  -0.2701   0.0000  -0.1402
  65 C   :2py    0.0000   0.0000  -0.0395   0.0000  -0.0000   0.0170   0.0000
  66 C   :2pz   -0.0253  -0.0120  -0.0000   0.1696   0.2223  -0.0000   0.0401
  67 C   :3d2-  -0.0000  -0.0000   0.0149  -0.0000   0.0000   0.0042  -0.0000
  68 C   :3d1-   0.0000   0.0000  -0.0131   0.0000  -0.0000  -0.0069   0.0000
  69 C   :3d0   -0.0157  -0.0107  -0.0000   0.0037   0.0128   0.0000  -0.0077
  70 C   :3d1+   0.0274  -0.0100   0.0000   0.0127   0.0118   0.0000   0.0033
  71 C   :3d2+   0.0079   0.0186   0.0000  -0.0117  -0.0239  -0.0000   0.0025
  73 C   :1s     0.0210   0.0088   0.0153  -0.0370   0.0228  -0.0395  -0.0184
  74 C   :1s    -0.0107  -0.0309  -0.0531  -0.2393   0.1803  -0.3112   0.0811
  75 C   :2px    0.0273  -0.0701   0.0389  -0.0150   0.0818   0.0158   0.0053
  76 C   :2py    0.0472   0.0389  -0.0252  -0.0260  -0.0159  -0.0634   0.0092
  77 C   :2pz   -0.0587   0.0226   0.0391  -0.0203  -0.0040   0.0067  -0.0478
  78 C   :2px   -0.0018  -0.0439  -0.0079   0.1203  -0.0803   0.1097   0.0703
  79 C   :2py   -0.0031  -0.0079  -0.0530   0.2077  -0.1097   0.2068   0.1217
  80 C   :2pz   -0.0254   0.0060   0.0104   0.1698  -0.1113   0.1923   0.0402
  81 C   :3d2-   0.0069  -0.0145  -0.0103  -0.0101   0.0122  -0.0169   0.0022
  82 C   :3d1-  -0.0237   0.0013  -0.0108  -0.0110   0.0021  -0.0106  -0.0029
  83 C   :3d0   -0.0157   0.0053   0.0092   0.0037  -0.0064   0.0110  -0.0077
  84 C   :3d1+  -0.0137  -0.0123   0.0013  -0.0064   0.0082  -0.0021  -0.0017
  85 C   :3d2+  -0.0040  -0.0065   0.0145   0.0058  -0.0028   0.0121  -0.0013
  87 C   :1s     0.0210   0.0088  -0.0153  -0.0370   0.0228   0.0395  -0.0184
  88 C   :1s    -0.0107  -0.0309   0.0531  -0.2393   0.1803   0.3112   0.0811
  89 C   :2px    0.0273  -0.0701  -0.0389  -0.0150   0.0818  -0.0158   0.0053
  90 C   :2py   -0.0472  -0.0389  -0.0252   0.0260   0.0159  -0.0634  -0.0092
  91 C   :2pz   -0.0587   0.0226  -0.0391  -0.0203  -0.0040  -0.0067  -0.0478
  92 C   :2px   -0.0018  -0.0439   0.0079   0.1203  -0.0803  -0.1097   0.0703
  93 C   :2py    0.0031   0.0079  -0.0530  -0.2077   0.1097   0.2068  -0.1217
  94 C   :2pz   -0.0254   0.0060  -0.0104   0.1698  -0.1113  -0.1923   0.0402
  95 C   :3d2-  -0.0069   0.0145  -0.0103   0.0101  -0.0122  -0.0169  -0.0022
  96 C   :3d1-   0.0237  -0.0013  -0.0108   0.0110  -0.0021  -0.0106   0.0029
  97 C   :3d0   -0.0157   0.0053  -0.0092   0.0037  -0.0064  -0.0110  -0.0077
  98 C   :3d1+  -0.0137  -0.0123  -0.0013  -0.0064   0.0082   0.0021  -0.0017
  99 C   :3d2+  -0.0040  -0.0065  -0.0145   0.0058  -0.0028  -0.0121  -0.0013
 100 O   :1s     0.0005   0.0009   0.0016  -0.0126   0.0066  -0.0115  -0.0028
 101 O   :1s    -0.0038  -0.0053  -0.0092  -0.0569   0.0262  -0.0452  -0.0069
 102 O   :1s    -0.0063  -0.0167  -0.0290   0.0834  -0.0644   0.1113   0.0378
 103 O   :2px   -0.0373   0.0779  -0.0484  -0.0012  -0.0958  -0.0364  -0.0141
 104 O   :2py   -0.0645  -0.0484   0.0221  -0.0020   0.0366   0.0537  -0.0244
 105 O   :2pz    0.1158  -0.0294  -0.0508   0.0250   0.0109  -0.0187   0.0827
 106 O   :2px   -0.0293   0.0761  -0.0398   0.0395  -0.1216   0.0083  -0.0078
 107 O   :2py   -0.0507  -0.0397   0.0303   0.0684  -0.0081   0.1309  -0.0135
 108 O   :2pz    0.1002  -0.0271  -0.0468   0.0553  -0.0022   0.0039   0.1016
 114 O   :1s     0.0005   0.0009  -0.0016  -0.0126   0.0066   0.0115  -0.0028
 115 O   :1s    -0.0038  -0.0053   0.0092  -0.0569   0.0262   0.0452  -0.0069
 116 O   :1s    -0.0063  -0.0167   0.0290   0.0834  -0.0644  -0.1113   0.0378
 117 O   :2px   -0.0373   0.0779   0.0484  -0.0012  -0.0958   0.0364  -0.0141
 118 O   :2py    0.0645   0.0484   0.0221   0.0020  -0.0366   0.0537   0.0244
 119 O   :2pz    0.1158  -0.0294   0.0508   0.0250   0.0109   0.0187   0.0827
 120 O   :2px   -0.0293   0.0761   0.0398   0.0395  -0.1216  -0.0083  -0.0078
 121 O   :2py    0.0507   0.0397   0.0303  -0.0684   0.0081   0.1309   0.0135
 122 O   :2pz    0.1002  -0.0271   0.0468   0.0553  -0.0022  -0.0039   0.1016
 129 O   :1s     0.0093   0.0000   0.0000  -0.0241   0.0000   0.0000   0.0454
 130 O   :1s     0.0306  -0.0000   0.0000   0.0723   0.0001   0.0000  -0.1234
 131 O   :2px    0.0000   0.3386  -0.0000   0.0001   0.1072   0.0000  -0.0000
 132 O   :2py    0.0000   0.0000   0.3384   0.0000   0.0000  -0.1072   0.0000
 133 O   :2pz   -0.1186   0.0001  -0.0000   0.0032   0.0001  -0.0000   0.0629
 134 O   :2px    0.0000   0.3314  -0.0000   0.0001   0.0958   0.0000  -0.0001
 135 O   :2py    0.0000   0.0000   0.3313   0.0000   0.0000  -0.0958  -0.0000
 136 O   :2pz   -0.1020   0.0001  -0.0000  -0.0482   0.0001  -0.0000   0.2639
 142 O   :1s     0.0005  -0.0019   0.0000  -0.0126  -0.0133   0.0000  -0.0028
 143 O   :1s    -0.0038   0.0106  -0.0000  -0.0569  -0.0523  -0.0000  -0.0069
 144 O   :1s    -0.0063   0.0334   0.0000   0.0833   0.1286   0.0000   0.0378
 145 O   :2px    0.0745  -0.0058  -0.0000   0.0024  -0.0327  -0.0000   0.0282
 146 O   :2py   -0.0000   0.0000   0.1059   0.0000   0.0000   0.1168   0.0000
 147 O   :2pz    0.1158   0.0587   0.0000   0.0251  -0.0217  -0.0000   0.0827
 148 O   :2px    0.0585   0.0073  -0.0000  -0.0790  -0.1357  -0.0000   0.0156
 149 O   :2py   -0.0000   0.0000   0.0992  -0.0000  -0.0000   0.1167  -0.0000
 150 O   :2pz    0.1001   0.0541   0.0000   0.0553   0.0043   0.0000   0.1016

    Orbital        47       48       49       50       51       52
   3 Fe  :1s    -0.0001  -0.0000  -0.0000  -0.0000   0.0423   0.0000
   4 Fe  :1s    -0.0001  -0.0000  -0.0001  -0.0000   0.0884   0.0000
   6 Fe  :1s    -0.0004   0.0000  -0.0005   0.0000   0.1296  -0.0000
  10 Fe  :2px    0.1248   0.0000  -0.0669   0.0000  -0.0000  -0.0000
  11 Fe  :2py   -0.0000   0.1247   0.0000   0.0671  -0.0000  -0.0005
  12 Fe  :2pz    0.0001  -0.0000   0.0002   0.0000  -0.1141  -0.0000
  13 Fe  :2px    1.6567   0.0000  -0.9182   0.0000  -0.0002   0.0000
  14 Fe  :2py   -0.0000   1.6560   0.0000   0.9198  -0.0000  -0.0050
  15 Fe  :2pz    0.0008  -0.0000   0.0026   0.0000  -1.4246  -0.0000
  16 Fe  :2px   -1.1118  -0.0000   0.5680  -0.0000   0.0000  -0.0000
  17 Fe  :2py    0.0000  -1.1115  -0.0000  -0.5692   0.0000   0.0032
  18 Fe  :2pz   -0.0005   0.0000  -0.0017   0.0000   0.9454   0.0000
  19 Fe  :2px   -0.8242  -0.0000   0.4809  -0.0000   0.0002   0.0000
  20 Fe  :2py    0.0000  -0.8232  -0.0000  -0.4809   0.0000   0.0012
  21 Fe  :2pz   -0.0004  -0.0000  -0.0014  -0.0000   0.8396  -0.0000
  22 Fe  :3d2-   0.0000  -0.2830  -0.0000   0.1742  -0.0000  -0.0004
  23 Fe  :3d1-   0.0000   0.2826  -0.0000   0.0313   0.0000  -0.0006
  24 Fe  :3d0    0.0005  -0.0000   0.0009   0.0000  -0.4968  -0.0000
  25 Fe  :3d1+   0.2822  -0.0000  -0.0311  -0.0000   0.0002   0.0000
  26 Fe  :3d2+   0.2831   0.0000   0.1745   0.0000   0.0006  -0.0000
  29 Fe  :3d0    0.0000  -0.0000   0.0000  -0.0000  -0.0153  -0.0000
  32 Fe  :3d2-   0.0000   0.0611  -0.0000  -0.0240  -0.0000   0.0003
  33 Fe  :3d1-   0.0000  -0.1237  -0.0000   0.1265  -0.0000   0.0004
  34 Fe  :3d0   -0.0000  -0.0000  -0.0000  -0.0000   0.1114   0.0000
  35 Fe  :3d1+  -0.1230  -0.0000  -0.1269  -0.0000  -0.0005   0.0000
  36 Fe  :3d2+  -0.0610   0.0000  -0.0238   0.0000  -0.0002  -0.0000
  37 Fe  :4f3-   0.0000   0.0000  -0.0000   0.0000   0.0000   0.0163
  39 Fe  :4f1-  -0.0000  -0.0025   0.0000  -0.0160   0.0000   0.0000
  41 Fe  :4f1+  -0.0025   0.0000   0.0160   0.0000   0.0000   0.0000
  45 N   :1s    -0.0000  -0.0000  -0.0001  -0.0000   0.0652   0.0000
  46 N   :1s    -0.0001   0.0000  -0.0003   0.0000   0.0794   0.0000
  47 N   :2px   -0.1373   0.0000   0.2167   0.0000   0.0002  -0.0000
  48 N   :2py   -0.0000  -0.1374   0.0000  -0.2169  -0.0000   0.0004
  49 N   :2pz   -0.0000   0.0000   0.0001   0.0000  -0.0300   0.0000
  50 N   :2px   -0.1391  -0.0000   0.2983  -0.0000   0.0003  -0.0000
  51 N   :2py    0.0000  -0.1390  -0.0000  -0.2985   0.0000   0.0005
  52 N   :2pz    0.0000  -0.0000   0.0005  -0.0000  -0.2092   0.0000
  55 N   :3d0    0.0000   0.0000   0.0000   0.0000  -0.0304   0.0000
  59 C   :1s    -0.0184   0.0000  -0.0095   0.0000  -0.0412  -0.0000
  60 C   :1s    -0.0665  -0.0000  -0.0802  -0.0000  -0.0867   0.0000
  61 C   :2px   -0.0106  -0.0000  -0.1701  -0.0000  -0.0758  -0.0000
  62 C   :2py   -0.0000   0.3184  -0.0000   0.0385   0.0000   0.3503
  63 C   :2pz   -0.0638   0.0000  -0.3689   0.0000  -0.2325  -0.0000
  64 C   :2px    0.1905   0.0000  -0.3599   0.0000  -0.0418  -0.0000
  65 C   :2py    0.0000   0.3967   0.0000   0.0653   0.0000   0.4406
  66 C   :2pz   -0.1714  -0.0000  -0.3553  -0.0000  -0.3141  -0.0000
  68 C   :3d1-   0.0000  -0.0040  -0.0000   0.0087   0.0000   0.0111
  73 C   :1s     0.0093   0.0160   0.0048  -0.0082  -0.0412   0.0000
  74 C   :1s     0.0336   0.0582   0.0405  -0.0690  -0.0863  -0.0006
  75 C   :2px    0.2359  -0.1423  -0.0710   0.0576   0.0379   0.3035
  76 C   :2py   -0.1426   0.0714  -0.0575   0.1372   0.0652  -0.1756
  77 C   :2pz    0.0322   0.0558   0.1850  -0.3197  -0.2314   0.0001
  78 C   :2px    0.3452  -0.0891  -0.1385   0.1283   0.0207   0.3812
  79 C   :2py   -0.0895   0.2416  -0.1280   0.2863   0.0356  -0.2214
  80 C   :2pz    0.0862   0.1490   0.1784  -0.3081  -0.3131  -0.0002
  87 C   :1s     0.0093  -0.0160   0.0048   0.0082  -0.0412  -0.0000
  88 C   :1s     0.0336  -0.0582   0.0405   0.0690  -0.0863   0.0006
  89 C   :2px    0.2359   0.1423  -0.0710  -0.0576   0.0379  -0.3035
  90 C   :2py    0.1426   0.0714   0.0575   0.1372  -0.0652  -0.1756
  91 C   :2pz    0.0322  -0.0558   0.1850   0.3197  -0.2314  -0.0001
  92 C   :2px    0.3452   0.0891  -0.1385  -0.1283   0.0207  -0.3812
  93 C   :2py    0.0895   0.2416   0.1280   0.2863  -0.0356  -0.2214
  94 C   :2pz    0.0862  -0.1490   0.1784   0.3081  -0.3131   0.0002
 101 O   :1s    -0.0173  -0.0299   0.0069  -0.0120   0.0218   0.0000
 102 O   :1s     0.0239   0.0412  -0.0358   0.0620   0.0067  -0.0003
 103 O   :2px   -0.1432   0.0991   0.0221  -0.0424  -0.0244  -0.1771
 104 O   :2py    0.0994  -0.0286   0.0424  -0.0708  -0.0419   0.1024
 105 O   :2pz   -0.0307  -0.0533  -0.1164   0.2012   0.1337  -0.0001
 106 O   :2px   -0.1756   0.1442   0.0321  -0.0392  -0.0411  -0.2438
 107 O   :2py    0.1445  -0.0091   0.0392  -0.0772  -0.0708   0.1409
 108 O   :2pz   -0.0270  -0.0469  -0.1579   0.2729   0.1688  -0.0001
 115 O   :1s    -0.0173   0.0299   0.0069   0.0120   0.0218  -0.0000
 116 O   :1s     0.0239  -0.0412  -0.0358  -0.0620   0.0067   0.0003
 117 O   :2px   -0.1432  -0.0991   0.0221   0.0424  -0.0244   0.1771
 118 O   :2py   -0.0994  -0.0286  -0.0424  -0.0708   0.0419   0.1024
 119 O   :2pz   -0.0307   0.0533  -0.1164  -0.2012   0.1337   0.0001
 120 O   :2px   -0.1756  -0.1442   0.0321   0.0392  -0.0411   0.2438
 121 O   :2py   -0.1445  -0.0091  -0.0392  -0.0772   0.0708   0.1409
 122 O   :2pz   -0.0270   0.0469  -0.1579  -0.2729   0.1688   0.0001
 129 O   :1s     0.0000  -0.0000   0.0001  -0.0000  -0.0614   0.0000
 130 O   :1s     0.0001   0.0000   0.0001   0.0000  -0.0630  -0.0000
 131 O   :2px    0.1249  -0.0000  -0.1417  -0.0000  -0.0001   0.0000
 132 O   :2py    0.0000   0.1250  -0.0000   0.1419  -0.0000  -0.0003
 133 O   :2pz   -0.0000   0.0000  -0.0001  -0.0000   0.0567   0.0000
 134 O   :2px    0.1544   0.0000  -0.1921   0.0000  -0.0001   0.0000
 135 O   :2py   -0.0000   0.1546   0.0000   0.1923  -0.0000  -0.0004
 136 O   :2pz    0.0000  -0.0000  -0.0000  -0.0000  -0.0221   0.0000
 143 O   :1s     0.0345  -0.0000  -0.0139  -0.0000   0.0218  -0.0000
 144 O   :1s    -0.0476   0.0000   0.0715   0.0000   0.0069   0.0000
 145 O   :2px    0.0286  -0.0000   0.0951  -0.0000   0.0488  -0.0000
 146 O   :2py   -0.0000  -0.2006   0.0000   0.0020   0.0000  -0.2045
 147 O   :2pz    0.0611  -0.0000   0.2322  -0.0000   0.1344  -0.0000
 148 O   :2px    0.0741  -0.0000   0.0996  -0.0000   0.0822   0.0000
 149 O   :2py    0.0000  -0.2592  -0.0000  -0.0100  -0.0000  -0.2815
 150 O   :2pz    0.0536   0.0000   0.3149   0.0000   0.1697   0.0000

 "NEWORB " orbitals punched.


  Total CPU  time used in SIRIUS :  48.16 seconds
  Total wall time used in SIRIUS :  1 minute  57 seconds

 
     Date and time (Linux)  : Sat May 15 10:57:50 2021
     Host name              : ADM-124261                              


                     .---------------------------------------.
                     | End of Wave Function Section (SIRIUS) |
                     `---------------------------------------'

  Total CPU  time used in DALTON:  48.62 seconds
  Total wall time used in DALTON:  1 minute  58 seconds

 
     Date and time (Linux)  : Sat May 15 10:57:50 2021
     Host name              : ADM-124261                              
