

     ************************************************************************
     *************** Dalton - An Electronic Structure Program ***************
     ************************************************************************

    This is output from DALTON release Dalton2019.alpha (2019)
         ( Web site: http://daltonprogram.org )

   ----------------------------------------------------------------------------

    NOTE:
     
    Dalton is an experimental code for the evaluation of molecular
    properties using (MC)SCF, DFT, CI, and CC wave functions.
    The authors accept no responsibility for the performance of
    the code or for the correctness of the results.
     
    The code (in whole or part) is provided under a licence and
    is not to be reproduced for further distribution without
    the written permission of the authors or their representatives.
     
    See the home page "http://daltonprogram.org" for further information.
     
    If results obtained with this code are published,
    the appropriate citations would be both of:
     
       K. Aidas, C. Angeli, K. L. Bak, V. Bakken, R. Bast,
       L. Boman, O. Christiansen, R. Cimiraglia, S. Coriani,
       P. Dahle, E. K. Dalskov, U. Ekstroem,
       T. Enevoldsen, J. J. Eriksen, P. Ettenhuber, B. Fernandez,
       L. Ferrighi, H. Fliegl, L. Frediani, K. Hald, A. Halkier,
       C. Haettig, H. Heiberg, T. Helgaker, A. C. Hennum,
       H. Hettema, E. Hjertenaes, S. Hoest, I.-M. Hoeyvik,
       M. F. Iozzi, B. Jansik, H. J. Aa. Jensen, D. Jonsson,
       P. Joergensen, J. Kauczor, S. Kirpekar,
       T. Kjaergaard, W. Klopper, S. Knecht, R. Kobayashi, H. Koch,
       J. Kongsted, A. Krapp, K. Kristensen, A. Ligabue,
       O. B. Lutnaes, J. I. Melo, K. V. Mikkelsen, R. H. Myhre,
       C. Neiss, C. B. Nielsen, P. Norman, J. Olsen,
       J. M. H. Olsen, A. Osted, M. J. Packer, F. Pawlowski,
       T. B. Pedersen, P. F. Provasi, S. Reine, Z. Rinkevicius,
       T. A. Ruden, K. Ruud, V. Rybkin, P. Salek, C. C. M. Samson,
       A. Sanchez de Meras, T. Saue, S. P. A. Sauer,
       B. Schimmelpfennig, K. Sneskov, A. H. Steindal,
       K. O. Sylvester-Hvid, P. R. Taylor, A. M. Teale,
       E. I. Tellgren, D. P. Tew, A. J. Thorvaldsen, L. Thoegersen,
       O. Vahtras, M. A. Watson, D. J. D. Wilson, M. Ziolkowski
       and H. Agren,
       "The Dalton quantum chemistry program system",
       WIREs Comput. Mol. Sci. 2014, 4:269–284 (doi: 10.1002/wcms.1172)
     
    and
     
       Dalton, a molecular electronic structure program,
       Release Dalton2019.alpha (2019), see http://daltonprogram.org
   ----------------------------------------------------------------------------

    Authors in alphabetical order (major contribution(s) in parenthesis):

  Kestutis Aidas,           Vilnius University,           Lithuania   (QM/MM)
  Celestino Angeli,         University of Ferrara,        Italy       (NEVPT2)
  Keld L. Bak,              UNI-C,                        Denmark     (AOSOPPA, non-adiabatic coupling, magnetic properties)
  Vebjoern Bakken,          University of Oslo,           Norway      (DALTON; geometry optimizer, symmetry detection)
  Radovan Bast,             UiT The Arctic U. of Norway,  Norway      (DALTON installation and execution frameworks)
  Pablo Baudin,             University of Valencia,       Spain       (Cholesky excitation energies)
  Linus Boman,              NTNU,                         Norway      (Cholesky decomposition and subsystems)
  Ove Christiansen,         Aarhus University,            Denmark     (CC module)
  Renzo Cimiraglia,         University of Ferrara,        Italy       (NEVPT2)
  Sonia Coriani,            Technical Univ. of Denmark,   Denmark     (CC module, MCD in RESPONS)
  Janusz Cukras,            University of Trieste,        Italy       (MChD in RESPONS)
  Paal Dahle,               University of Oslo,           Norway      (Parallelization)
  Erik K. Dalskov,          UNI-C,                        Denmark     (SOPPA)
  Thomas Enevoldsen,        Univ. of Southern Denmark,    Denmark     (SOPPA)
  Janus J. Eriksen,         Aarhus University,            Denmark     (Polarizable embedding model, TDA)
  Rasmus Faber,             University of Copenhagen,     Denmark     (Vib.avg. NMR with SOPPA, parallel AO-SOPPA)
  Tobias Fahleson,          KTH Stockholm,                Sweden      (Damped cubic response)
  Berta Fernandez,          U. of Santiago de Compostela, Spain       (doublet spin, ESR in RESPONS)
  Lara Ferrighi,            Aarhus University,            Denmark     (PCM Cubic response)
  Heike Fliegl,             University of Oslo,           Norway      (CCSD(R12))
  Luca Frediani,            UiT The Arctic U. of Norway,  Norway      (PCM)
  Bin Gao,                  UiT The Arctic U. of Norway,  Norway      (Gen1Int library)
  Christof Haettig,         Ruhr-University Bochum,       Germany     (CC module)
  Kasper Hald,              Aarhus University,            Denmark     (CC module)
  Asger Halkier,            Aarhus University,            Denmark     (CC module)
  Frederik Beyer Hansen,    University of Copenhagen,     Denmark     (Parallel AO-SOPPA)
  Erik D. Hedegaard,        Univ. of Southern Denmark,    Denmark     (Polarizable embedding model, QM/MM)
  Hanne Heiberg,            University of Oslo,           Norway      (geometry analysis, selected one-electron integrals)
  Trygve Helgaker,          University of Oslo,           Norway      (DALTON; ABACUS, ERI, DFT modules, London, and much more)
  Alf Christian Hennum,     University of Oslo,           Norway      (Parity violation)
  Hinne Hettema,            University of Auckland,       New Zealand (quadratic response in RESPONS; SIRIUS supersymmetry)
  Eirik Hjertenaes,         NTNU,                         Norway      (Cholesky decomposition)
  Pi A. B. Haase,           University of Copenhagen,     Denmark     (Triplet AO-SOPPA)
  Maria Francesca Iozzi,    University of Oslo,           Norway      (RPA)
  Christoph Jacob           TU Braunschweig               Germany     (Frozen density embedding model)
  Brano Jansik              Technical Univ. of Ostrava    Czech Rep.  (DFT cubic response)
  Hans Joergen Aa. Jensen,  Univ. of Southern Denmark,    Denmark     (DALTON; SIRIUS, RESPONS, ABACUS modules, London, and much more)
  Dan Jonsson,              UiT The Arctic U. of Norway,  Norway      (cubic response in RESPONS module)
  Poul Joergensen,          Aarhus University,            Denmark     (RESPONS, ABACUS, and CC modules)
  Maciej Kaminski,          University of Warsaw,         Poland      (CPPh in RESPONS)
  Joanna Kauczor,           Linkoeping University,        Sweden      (Complex polarization propagator (CPP) module)
  Sheela Kirpekar,          Univ. of Southern Denmark,    Denmark     (Mass-velocity & Darwin integrals)
  Wim Klopper,              KIT Karlsruhe,                Germany     (R12 code in CC, SIRIUS, and ABACUS modules)
  Stefan Knecht,            ETH Zurich,                   Switzerland (Parallel CI and MCSCF)
  Rika Kobayashi,           Australian National Univ.,    Australia   (DIIS in CC, London in MCSCF)
  Henrik Koch,              NTNU,                         Norway      (CC module, Cholesky decomposition)
  Jacob Kongsted,           Univ. of Southern Denmark,    Denmark     (Polarizable embedding model, QM/MM)
  Andrea Ligabue,           University of Modena,         Italy       (CTOCD, AOSOPPA)
  Nanna H. List             Univ. of Southern Denmark,    Denmark     (Polarizable embedding model)
  Ola B. Lutnaes,           University of Oslo,           Norway      (DFT Hessian)
  Juan I. Melo,             University of Buenos Aires,   Argentina   (LRESC, Relativistic Effects on NMR Shieldings)
  Kurt V. Mikkelsen,        University of Copenhagen,     Denmark     (MC-SCRF and QM/MM)
  Rolf H. Myhre,            NTNU,                         Norway      (Subsystems and CC3)
  Christian Neiss,          Univ. Erlangen-Nuernberg,     Germany     (CCSD(R12))
  Christian B. Nielsen,     University of Copenhagen,     Denmark     (QM/MM)
  Patrick Norman,           KTH Stockholm,                Sweden      (Cubic response and complex frequency response in RESPONS)
  Jeppe Olsen,              Aarhus University,            Denmark     (SIRIUS CI/density modules)
  Jogvan Magnus H. Olsen,   Univ. of Southern Denmark,    Denmark     (Polarizable embedding model, QM/MM)
  Anders Osted,             Copenhagen University,        Denmark     (QM/MM)
  Martin J. Packer,         University of Sheffield,      UK          (SOPPA)
  Filip Pawlowski,          Kazimierz Wielki University,  Poland      (CC3)
  Morten N. Pedersen,       Univ. of Southern Denmark,    Denmark     (Polarizable embedding model)
  Thomas B. Pedersen,       University of Oslo,           Norway      (Cholesky decomposition)
  Patricio F. Provasi,      University of Northeastern,   Argentina   (Analysis of coupling constants in localized orbitals)
  Zilvinas Rinkevicius,     KTH Stockholm,                Sweden      (open-shell DFT, ESR)
  Elias Rudberg,            KTH Stockholm,                Sweden      (DFT grid and basis info)
  Torgeir A. Ruden,         University of Oslo,           Norway      (Numerical derivatives in ABACUS)
  Kenneth Ruud,             UiT The Arctic U. of Norway,  Norway      (DALTON; ABACUS magnetic properties and much more)
  Pawel Salek,              KTH Stockholm,                Sweden      (DALTON; DFT code)
  Claire C. M. Samson       University of Karlsruhe       Germany     (Boys localization, r12 integrals in ERI)
  Alfredo Sanchez de Meras, University of Valencia,       Spain       (CC module, Cholesky decomposition)
  Trond Saue,               Paul Sabatier University,     France      (direct Fock matrix construction)
  Stephan P. A. Sauer,      University of Copenhagen,     Denmark     (SOPPA(CCSD), SOPPA prop., AOSOPPA, vibrational g-factors)
  Andre S. P. Gomes,        CNRS/Universite de Lille,     France      (Frozen density embedding model)
  Bernd Schimmelpfennig,    Forschungszentrum Karlsruhe,  Germany     (AMFI module)
  Kristian Sneskov,         Aarhus University,            Denmark     (Polarizable embedding model, QM/MM)
  Arnfinn H. Steindal,      UiT The Arctic U. of Norway,  Norway      (parallel QM/MM, Polarizable embedding model)
  Casper Steinmann,         Univ. of Southern Denmark,    Denmark     (QFIT, Polarizable embedding model)
  K. O. Sylvester-Hvid,     University of Copenhagen,     Denmark     (MC-SCRF)
  Peter R. Taylor,          VLSCI/Univ. of Melbourne,     Australia   (Symmetry handling ABACUS, integral transformation)
  Andrew M. Teale,          University of Nottingham,     England     (DFT-AC, DFT-D)
  David P. Tew,             University of Bristol,        England     (CCSD(R12))
  Olav Vahtras,             KTH Stockholm,                Sweden      (triplet response, spin-orbit, ESR, TDDFT, open-shell DFT)
  Lucas Visscher,           Vrije Universiteit Amsterdam, Netherlands (Frozen density embedding model)
  David J. Wilson,          La Trobe University,          Australia   (DFT Hessian and DFT magnetizabilities)
  Hans Agren,               KTH Stockholm,                Sweden      (SIRIUS module, RESPONS, MC-SCRF solvation model)
 --------------------------------------------------------------------------------

     Date and time (Linux)  : Wed Jun  5 14:30:31 2019
     Host name              : s74p23.deic.sdu.dk                      

 * Work memory size             :   320000000 =  2.384 gigabytes.

 * Directories for basis set searches:
   1) /work/sdujk/kjellgren/MCsrMGGA/spin-spin_metals/hf
   2) /gpfs/gss1/work/sdujk/kjellgren/programs/dalton/srdft_dalton_intel/basis


Compilation information
-----------------------

 Who compiled             | kjellgren
 Host                     | fe1.deic.sdu.dk
 System                   | Linux-3.10.0-327.36.3.el7.x86_64
 CMake generator          | Unix Makefiles
 Processor                | x86_64
 64-bit integers          | OFF
 MPI                      | ON
 Fortran compiler         | /opt/sys/apps/intel/2018.05/impi_latest/intel64/bi
                          | n/mpiifort
 Fortran compiler version | unknown
 C compiler               | /opt/sys/apps/intel/2018.05/impi_latest/intel64/bi
                          | n/mpiicc
 C compiler version       | unknown
 C++ compiler             | /opt/sys/apps/intel/2018.05/impi_latest/intel64/bi
                          | n/mpiicpc
 C++ compiler version     | unknown
 Static linking           | OFF
 Last Git revision        | 4bbd0b40128eb84fef50606236f8fd13f96f8b30
 Git branch               | hjaaj-srdft
 Configuration time       | 2019-05-26 09:37:52.234580

 * MPI parallel run using 24 processes.


   Content of the .dal input file
 ----------------------------------

**DALTON INPUT
.RUN WAVE FUNCTIONS
*MOLBAS
.PRINT
 10
.SYMTHR
 0.05
**WAVE FUNCTIONS
.HF
*ORBITAL INPUT
.PUNCHOUTORBITALS
.AO DELETE
 1.0D-20
.CMOMAX
 1.0D+20
**END OF DALTON INPUT


   Content of the .mol file
 ----------------------------

BASIS
aug-cc-pVTZ-J
 Title
 Generated by the Dalton Input File Plugin for Avogadro
Atomtypes=2 Angstrom Charge=-3
Charge=21.0 Atoms=1
Sc         0.00000        0.00000        0.00000
Charge=9.0 Atoms=6
F          2.08696        0.00000        0.00000
F          0.00000        2.08696        0.00000
F         -2.08696        0.00000        0.00000
F          0.00000       -2.08696        0.00000
F          0.00000        0.00000        2.08696
F          0.00000        0.00000       -2.08696


       *******************************************************************
       *********** Output from DALTON general input processing ***********
       *******************************************************************

 --------------------------------------------------------------------------------
   Overall default print level:    0
   Print level for DALTON.STAT:    1

    Parallel calculation using MPI
    AO-direct calculation (in sections where implemented)
    HERMIT 1- and 2-electron integral sections will be executed
    "Old" integral transformation used (limited to max 255 basis functions)
    Wave function sections will be executed (SIRIUS module)
 --------------------------------------------------------------------------------

@ * Nuclear model: Point charge.


 Changes of defaults for *MOLBAS
 -------------------------------

 Print level in molecule setup (READIN):   10
 Symmetry detection threshold:  5.00E-02



   ****************************************************************************
   *************** Output of molecule and basis set information ***************
   ****************************************************************************


 Basis set 1 is  "aug-cc-pVTZ-J" from the basis set library.

    The two title cards from your ".mol" input:
    ------------------------------------------------------------------------
 1:  Title                                                                  
 2:  Generated by the Dalton Input File Plugin for Avogadro                 
    ------------------------------------------------------------------------

  Coordinates are entered in Angstrom and converted to atomic units.
          - Conversion factor : 1 bohr = 0.52917721 A

  Calculation of transformation matrices for spherical GTOs.


                            **************************
                            *** Output from SPHCOM ***
                            **************************

      LVAL      2
      NLM       5
      NXYZ      6
      MINTEG    2


                              +---------------------+
                              ! Legendre polynomial !
                              +---------------------+


               Column   1     Column   2     Column   3
       1      -0.50000000     0.00000000     1.50000000
    ==== End of matrix output ====


                            +-------------------------+
                            ! Cosine and sine factors !
                            +-------------------------+


               Column   1     Column   2     Column   3
       1       1.00000000     0.00000000     0.00000000
       2       1.00000000     1.00000000     0.00000000
       3       1.00000000     2.00000000    -1.00000000
    ==== End of matrix output ====


                  +----------------------------------------------+
                  ! Cartesian to spherical transformation matrix !
                  +----------------------------------------------+

                              Moment order: 2

               Column   1     Column   2     Column   3     Column   4     Column   5
       1       0.00000000     0.00000000    -0.28867513     0.00000000     0.50000000
       2       1.00000000     0.00000000     0.00000000     0.00000000     0.00000000
       3       0.00000000     0.00000000     0.00000000     1.00000000     0.00000000
       4       0.00000000     0.00000000    -0.28867513     0.00000000    -0.50000000
       5       0.00000000     1.00000000     0.00000000     0.00000000     0.00000000
       6       0.00000000     0.00000000     0.57735027     0.00000000     0.00000000
    ==== End of matrix output ====


                            **************************
                            *** Output from SPHCOM ***
                            **************************

      LVAL      3
      NLM       7
      NXYZ     10
      MINTEG    2


                              +---------------------+
                              ! Legendre polynomial !
                              +---------------------+


               Column   1     Column   2     Column   3     Column   4
       1       0.00000000    -1.50000000     0.00000000     2.50000000
    ==== End of matrix output ====


                            +-------------------------+
                            ! Cosine and sine factors !
                            +-------------------------+


               Column   1     Column   2     Column   3     Column   4
       1       1.00000000     0.00000000     0.00000000     0.00000000
       2       1.00000000     1.00000000     0.00000000     0.00000000
       3       1.00000000     2.00000000    -1.00000000     0.00000000
       4       1.00000000     3.00000000    -3.00000000    -1.00000000
    ==== End of matrix output ====


                  +----------------------------------------------+
                  ! Cartesian to spherical transformation matrix !
                  +----------------------------------------------+

                              Moment order: 3

               Column   1     Column   2     Column   3     Column   4     Column   5
       1       0.00000000     0.00000000     0.00000000     0.00000000    -0.15811388
       2       0.61237244     0.00000000    -0.15811388     0.00000000     0.00000000
       3       0.00000000     0.00000000     0.00000000    -0.38729833     0.00000000
       4       0.00000000     0.00000000     0.00000000     0.00000000    -0.15811388
       5       0.00000000     1.00000000     0.00000000     0.00000000     0.00000000
       6       0.00000000     0.00000000     0.00000000     0.00000000     0.63245553
       7      -0.20412415     0.00000000    -0.15811388     0.00000000     0.00000000
       8       0.00000000     0.00000000     0.00000000    -0.38729833     0.00000000
       9       0.00000000     0.00000000     0.63245553     0.00000000     0.00000000
      10       0.00000000     0.00000000     0.00000000     0.25819889     0.00000000

               Column   6     Column   7
       1       0.00000000     0.20412415
       3       0.50000000     0.00000000
       4       0.00000000    -0.61237244
       8      -0.50000000     0.00000000
    ==== End of matrix output ====


                            **************************
                            *** Output from SPHCOM ***
                            **************************

      LVAL      4
      NLM       9
      NXYZ     15
      MINTEG    2


                              +---------------------+
                              ! Legendre polynomial !
                              +---------------------+


               Column   1     Column   2     Column   3     Column   4     Column   5
       1       0.37500000     0.00000000    -3.75000000     0.00000000     4.37500000
    ==== End of matrix output ====


                            +-------------------------+
                            ! Cosine and sine factors !
                            +-------------------------+


               Column   1     Column   2     Column   3     Column   4     Column   5
       1       1.00000000     0.00000000     0.00000000     0.00000000     0.00000000
       2       1.00000000     1.00000000     0.00000000     0.00000000     0.00000000
       3       1.00000000     2.00000000    -1.00000000     0.00000000     0.00000000
       4       1.00000000     3.00000000    -3.00000000    -1.00000000     0.00000000
       5       1.00000000     4.00000000    -6.00000000    -4.00000000     1.00000000
    ==== End of matrix output ====


                  +----------------------------------------------+
                  ! Cartesian to spherical transformation matrix !
                  +----------------------------------------------+

                              Moment order: 4

               Column   1     Column   2     Column   3     Column   4     Column   5
       1       0.00000000     0.00000000     0.00000000     0.00000000     0.03659625
       2       0.28867513     0.00000000    -0.10910895     0.00000000     0.00000000
       4       0.00000000     0.00000000     0.00000000     0.00000000     0.07319251
       5       0.00000000     0.61237244     0.00000000    -0.23145502     0.00000000
       6       0.00000000     0.00000000     0.00000000     0.00000000    -0.29277002
       7      -0.28867513     0.00000000    -0.10910895     0.00000000     0.00000000
       9       0.00000000     0.00000000     0.65465367     0.00000000     0.00000000
      11       0.00000000     0.00000000     0.00000000     0.00000000     0.03659625
      12       0.00000000    -0.20412415     0.00000000    -0.23145502     0.00000000
      13       0.00000000     0.00000000     0.00000000     0.00000000    -0.29277002
      14       0.00000000     0.00000000     0.00000000     0.30860670     0.00000000
      15       0.00000000     0.00000000     0.00000000     0.00000000     0.09759001

               Column   6     Column   7     Column   8     Column   9
       1       0.00000000    -0.05455447     0.00000000     0.07216878
       3      -0.23145502     0.00000000     0.20412415     0.00000000
       4       0.00000000     0.00000000     0.00000000    -0.43301270
       6       0.00000000     0.32732684     0.00000000     0.00000000
       8      -0.23145502     0.00000000    -0.61237244     0.00000000
      10       0.30860670     0.00000000     0.00000000     0.00000000
      11       0.00000000     0.05455447     0.00000000     0.07216878
      13       0.00000000    -0.32732684     0.00000000     0.00000000
    ==== End of matrix output ====


                            **************************
                            *** Output from SPHCOM ***
                            **************************

      LVAL      5
      NLM      11
      NXYZ     21
      MINTEG    2


                              +---------------------+
                              ! Legendre polynomial !
                              +---------------------+


               Column   1     Column   2     Column   3     Column   4     Column   5
       1       0.00000000     1.87500000     0.00000000    -8.75000000     0.00000000

               Column   6
       1       7.87500000
    ==== End of matrix output ====


                            +-------------------------+
                            ! Cosine and sine factors !
                            +-------------------------+


               Column   1     Column   2     Column   3     Column   4     Column   5
       1       1.00000000     0.00000000     0.00000000     0.00000000     0.00000000
       2       1.00000000     1.00000000     0.00000000     0.00000000     0.00000000
       3       1.00000000     2.00000000    -1.00000000     0.00000000     0.00000000
       4       1.00000000     3.00000000    -3.00000000    -1.00000000     0.00000000
       5       1.00000000     4.00000000    -6.00000000    -4.00000000     1.00000000
       6       1.00000000     5.00000000   -10.00000000   -10.00000000     5.00000000

               Column   6
       6       1.00000000
    ==== End of matrix output ====


                  +----------------------------------------------+
                  ! Cartesian to spherical transformation matrix !
                  +----------------------------------------------+

                              Moment order: 5

               Column   1     Column   2     Column   3     Column   4     Column   5
       2       0.11410887     0.00000000    -0.05103104     0.00000000     0.01574852
       5       0.00000000     0.28867513     0.00000000    -0.16666667     0.00000000
       7      -0.22821773     0.00000000    -0.03402069     0.00000000     0.03149704
       9       0.00000000     0.00000000     0.40824829     0.00000000    -0.18898224
      12       0.00000000    -0.28867513     0.00000000    -0.16666667     0.00000000
      14       0.00000000     0.00000000     0.00000000     0.33333333     0.00000000
      16       0.02282177     0.00000000     0.01701035     0.00000000     0.01574852
      18       0.00000000     0.00000000    -0.13608276     0.00000000    -0.18898224
      20       0.00000000     0.00000000     0.00000000     0.00000000     0.12598816

               Column   6     Column   7     Column   8     Column   9     Column  10
       1       0.00000000     0.01574852     0.00000000    -0.01701035     0.00000000
       3       0.06099375     0.00000000    -0.08333333     0.00000000     0.07216878
       4       0.00000000     0.03149704     0.00000000     0.03402069     0.00000000
       6       0.00000000    -0.18898224     0.00000000     0.13608276     0.00000000
       8       0.12198751     0.00000000     0.00000000     0.00000000    -0.43301270
      10      -0.16265001     0.00000000     0.16666667     0.00000000     0.00000000
      11       0.00000000     0.01574852     0.00000000     0.05103104     0.00000000
      13       0.00000000    -0.18898224     0.00000000    -0.40824829     0.00000000
      15       0.00000000     0.12598816     0.00000000     0.00000000     0.00000000
      17       0.06099375     0.00000000     0.08333333     0.00000000     0.07216878
      19      -0.16265001     0.00000000    -0.16666667     0.00000000     0.00000000
      21       0.03253000     0.00000000     0.00000000     0.00000000     0.00000000

               Column  11
       1       0.02282177
       4      -0.22821773
      11       0.11410887
    ==== End of matrix output ====


                            **************************
                            *** Output from SPHCOM ***
                            **************************

      LVAL      6
      NLM      13
      NXYZ     28
      MINTEG    2


                              +---------------------+
                              ! Legendre polynomial !
                              +---------------------+


               Column   1     Column   2     Column   3     Column   4     Column   5
       1      -0.31250000     0.00000000     6.56250000     0.00000000   -19.68750000

               Column   6     Column   7
       1       0.00000000    14.43750000
    ==== End of matrix output ====


                            +-------------------------+
                            ! Cosine and sine factors !
                            +-------------------------+


               Column   1     Column   2     Column   3     Column   4     Column   5
       1       1.00000000     0.00000000     0.00000000     0.00000000     0.00000000
       2       1.00000000     1.00000000     0.00000000     0.00000000     0.00000000
       3       1.00000000     2.00000000    -1.00000000     0.00000000     0.00000000
       4       1.00000000     3.00000000    -3.00000000    -1.00000000     0.00000000
       5       1.00000000     4.00000000    -6.00000000    -4.00000000     1.00000000
       6       1.00000000     5.00000000   -10.00000000   -10.00000000     5.00000000
       7       1.00000000     6.00000000   -15.00000000   -20.00000000    15.00000000

               Column   6     Column   7
       6       1.00000000     0.00000000
       7       6.00000000    -1.00000000
    ==== End of matrix output ====


                  +----------------------------------------------+
                  ! Cartesian to spherical transformation matrix !
                  +----------------------------------------------+

                              Moment order: 6

               Column   1     Column   2     Column   3     Column   4     Column   5
       2       0.03952847     0.00000000    -0.01946247     0.00000000     0.00888336
       5       0.00000000     0.11410887     0.00000000    -0.07995027     0.00000000
       7      -0.13176157     0.00000000     0.00000000     0.00000000     0.01776673
       9       0.00000000     0.00000000     0.19462474     0.00000000    -0.14213381
      12       0.00000000    -0.22821773     0.00000000    -0.05330018     0.00000000
      14       0.00000000     0.00000000     0.00000000     0.21320072     0.00000000
      16       0.03952847     0.00000000     0.01946247     0.00000000     0.00888336
      18       0.00000000     0.00000000    -0.19462474     0.00000000    -0.14213381
      20       0.00000000     0.00000000     0.00000000     0.00000000     0.14213381
      23       0.00000000     0.02282177     0.00000000     0.02665009     0.00000000
      25       0.00000000     0.00000000     0.00000000    -0.07106691     0.00000000

               Column   6     Column   7     Column   8     Column   9     Column  10
       1       0.00000000    -0.00306505     0.00000000     0.00444168     0.00000000
       3       0.00000000     0.00000000     0.02809166     0.00000000    -0.02665009
       4       0.00000000    -0.00919515     0.00000000     0.00444168     0.00000000
       5       0.02809166     0.00000000     0.00000000     0.00000000     0.00000000
       6       0.00000000     0.05517093     0.00000000    -0.07106691     0.00000000
       8       0.00000000     0.00000000     0.05618332     0.00000000     0.05330018
      10       0.00000000     0.00000000    -0.11236664     0.00000000     0.07106691
      11       0.00000000    -0.00919515     0.00000000    -0.00444168     0.00000000
      12       0.05618332     0.00000000     0.00000000     0.00000000     0.00000000
      13       0.00000000     0.11034185     0.00000000     0.00000000     0.00000000
      14      -0.11236664     0.00000000     0.00000000     0.00000000     0.00000000
      15       0.00000000    -0.07356124     0.00000000     0.07106691     0.00000000
      17       0.00000000     0.00000000     0.02809166     0.00000000     0.07995027
      19       0.00000000     0.00000000    -0.11236664     0.00000000    -0.21320072
      21       0.00000000     0.00000000     0.04494666     0.00000000     0.00000000
      22       0.00000000    -0.00306505     0.00000000    -0.00444168     0.00000000
      23       0.02809166     0.00000000     0.00000000     0.00000000     0.00000000
      24       0.00000000     0.05517093     0.00000000     0.07106691     0.00000000
      25      -0.11236664     0.00000000     0.00000000     0.00000000     0.00000000
      26       0.00000000    -0.07356124     0.00000000    -0.07106691     0.00000000
      27       0.04494666     0.00000000     0.00000000     0.00000000     0.00000000
      28       0.00000000     0.00980816     0.00000000     0.00000000     0.00000000

               Column  11     Column  12     Column  13
       1      -0.00486562     0.00000000     0.00658808
       3       0.00000000     0.02282177     0.00000000
       4       0.02432809     0.00000000    -0.09882118
       6       0.04865618     0.00000000     0.00000000
       8       0.00000000    -0.22821773     0.00000000
      11       0.02432809     0.00000000     0.09882118
      13      -0.29193710     0.00000000     0.00000000
      17       0.00000000     0.11410887     0.00000000
      22      -0.00486562     0.00000000    -0.00658808
      24       0.04865618     0.00000000     0.00000000
    ==== End of matrix output ====


                            **************************
                            *** Output from SPHCOM ***
                            **************************

      LVAL      7
      NLM      15
      NXYZ     36
      MINTEG    2


                              +---------------------+
                              ! Legendre polynomial !
                              +---------------------+


               Column   1     Column   2     Column   3     Column   4     Column   5
       1       0.00000000    -2.18750000     0.00000000    19.68750000     0.00000000

               Column   6     Column   7     Column   8
       1     -43.31250000     0.00000000    26.81250000
    ==== End of matrix output ====


                            +-------------------------+
                            ! Cosine and sine factors !
                            +-------------------------+


               Column   1     Column   2     Column   3     Column   4     Column   5
       1       1.00000000     0.00000000     0.00000000     0.00000000     0.00000000
       2       1.00000000     1.00000000     0.00000000     0.00000000     0.00000000
       3       1.00000000     2.00000000    -1.00000000     0.00000000     0.00000000
       4       1.00000000     3.00000000    -3.00000000    -1.00000000     0.00000000
       5       1.00000000     4.00000000    -6.00000000    -4.00000000     1.00000000
       6       1.00000000     5.00000000   -10.00000000   -10.00000000     5.00000000
       7       1.00000000     6.00000000   -15.00000000   -20.00000000    15.00000000
       8       1.00000000     7.00000000   -21.00000000   -35.00000000    35.00000000

               Column   6     Column   7     Column   8
       6       1.00000000     0.00000000     0.00000000
       7       6.00000000    -1.00000000     0.00000000
       8      21.00000000    -7.00000000    -1.00000000
    ==== End of matrix output ====


                  +----------------------------------------------+
                  ! Cartesian to spherical transformation matrix !
                  +----------------------------------------------+

                              Moment order: 7

               Column   1     Column   2     Column   3     Column   4     Column   5
       2       0.01232517     0.00000000    -0.00646014     0.00000000     0.00350605
       5       0.00000000     0.03952847     0.00000000    -0.03100868     0.00000000
       7      -0.06162583     0.00000000     0.00646014     0.00000000     0.00584342
       9       0.00000000     0.00000000     0.07752171     0.00000000    -0.07012102
      12       0.00000000    -0.13176157     0.00000000     0.00000000     0.00000000
      14       0.00000000     0.00000000     0.00000000     0.10336228     0.00000000
      16       0.03697550     0.00000000     0.01162826     0.00000000     0.00116868
      18       0.00000000     0.00000000    -0.15504342     0.00000000    -0.04674735
      20       0.00000000     0.00000000     0.00000000     0.00000000     0.09349470
      23       0.00000000     0.03952847     0.00000000     0.03100868     0.00000000
      25       0.00000000     0.00000000     0.00000000    -0.10336228     0.00000000
      29      -0.00176074     0.00000000    -0.00129203     0.00000000    -0.00116868
      31       0.00000000     0.00000000     0.01550434     0.00000000     0.02337367
      33       0.00000000     0.00000000     0.00000000     0.00000000    -0.03116490

               Column   6     Column   7     Column   8     Column   9     Column  10
       1       0.00000000     0.00000000     0.00000000    -0.00112457     0.00000000
       2       0.00000000    -0.00112457     0.00000000     0.00000000     0.00000000
       3       0.00000000     0.00000000    -0.00595065     0.00000000     0.00826384
       4       0.00000000     0.00000000     0.00000000    -0.00337370     0.00000000
       5       0.01652768     0.00000000     0.00000000     0.00000000     0.00000000
       6       0.00000000     0.00000000     0.00000000     0.02698959     0.00000000
       7       0.00000000    -0.00337370     0.00000000     0.00000000     0.00000000
       8       0.00000000     0.00000000    -0.01785194     0.00000000     0.00826384
       9       0.00000000     0.02698959     0.00000000     0.00000000     0.00000000
      10       0.00000000     0.00000000     0.03570388     0.00000000    -0.04407382
      11       0.00000000     0.00000000     0.00000000    -0.00337370     0.00000000
      12       0.03305537     0.00000000     0.00000000     0.00000000     0.00000000
      13       0.00000000     0.00000000     0.00000000     0.05397919     0.00000000
      14      -0.08814765     0.00000000     0.00000000     0.00000000     0.00000000
      15       0.00000000     0.00000000     0.00000000    -0.05397919     0.00000000
      16       0.00000000    -0.00337370     0.00000000     0.00000000     0.00000000
      17       0.00000000     0.00000000    -0.01785194     0.00000000    -0.00826384
      18       0.00000000     0.05397919     0.00000000     0.00000000     0.00000000
      19       0.00000000     0.00000000     0.07140776     0.00000000     0.00000000
      20       0.00000000    -0.05397919     0.00000000     0.00000000     0.00000000
      21       0.00000000     0.00000000    -0.02856310     0.00000000     0.02644429
      22       0.00000000     0.00000000     0.00000000    -0.00112457     0.00000000
      23       0.01652768     0.00000000     0.00000000     0.00000000     0.00000000
      24       0.00000000     0.00000000     0.00000000     0.02698959     0.00000000
      25      -0.08814765     0.00000000     0.00000000     0.00000000     0.00000000
      26       0.00000000     0.00000000     0.00000000    -0.05397919     0.00000000
      27       0.05288859     0.00000000     0.00000000     0.00000000     0.00000000
      28       0.00000000     0.00000000     0.00000000     0.01439445     0.00000000
      29       0.00000000    -0.00112457     0.00000000     0.00000000     0.00000000
      30       0.00000000     0.00000000    -0.00595065     0.00000000    -0.00826384
      31       0.00000000     0.02698959     0.00000000     0.00000000     0.00000000
      32       0.00000000     0.00000000     0.03570388     0.00000000     0.04407382
      33       0.00000000    -0.05397919     0.00000000     0.00000000     0.00000000
      34       0.00000000     0.00000000    -0.02856310     0.00000000    -0.02644429
      35       0.00000000     0.01439445     0.00000000     0.00000000     0.00000000
      36       0.00000000     0.00000000     0.00272030     0.00000000     0.00000000

               Column  11     Column  12     Column  13     Column  14     Column  15
       1       0.00116868     0.00000000    -0.00129203     0.00000000     0.00176074
       3       0.00000000    -0.00775217     0.00000000     0.00658808     0.00000000
       4      -0.00116868     0.00000000     0.01162826     0.00000000    -0.03697550
       6      -0.02337367     0.00000000     0.01550434     0.00000000     0.00000000
       8       0.00000000     0.03876085     0.00000000    -0.09882118     0.00000000
      10       0.00000000     0.02584057     0.00000000     0.00000000     0.00000000
      11      -0.00584342     0.00000000     0.00646014     0.00000000     0.06162583
      13       0.04674735     0.00000000    -0.15504342     0.00000000     0.00000000
      15       0.03116490     0.00000000     0.00000000     0.00000000     0.00000000
      17       0.00000000     0.03876085     0.00000000     0.09882118     0.00000000
      19       0.00000000    -0.15504342     0.00000000     0.00000000     0.00000000
      22      -0.00350605     0.00000000    -0.00646014     0.00000000    -0.01232517
      24       0.07012102     0.00000000     0.07752171     0.00000000     0.00000000
      26      -0.09349470     0.00000000     0.00000000     0.00000000     0.00000000
      30       0.00000000    -0.00775217     0.00000000    -0.00658808     0.00000000
      32       0.00000000     0.02584057     0.00000000     0.00000000     0.00000000
    ==== End of matrix output ====


                        Cartesian transformation matrices
                        ---------------------------------

  to spherical harmonics


  Coefficients for angular quantum number     0
  to GTOs with labels:
     1s  

               Column   1
       1       1.00000000
    ==== End of matrix output ====

  Coefficients for angular quantum number     1
  to GTOs with labels:
     2px  2py  2pz 

               Column   1     Column   2     Column   3
       1       1.00000000     0.00000000     0.00000000
       2       0.00000000     1.00000000     0.00000000
       3       0.00000000     0.00000000     1.00000000
    ==== End of matrix output ====

  Coefficients for angular quantum number     2
  to GTOs with labels:
     3d2- 3d1- 3d0  3d1+ 3d2+

               Column   1     Column   2     Column   3     Column   4     Column   5
       1       0.00000000     1.00000000     0.00000000     0.00000000     0.00000000
       2       0.00000000     0.00000000     0.00000000     0.00000000     1.00000000
       3      -0.28867513     0.00000000     0.00000000    -0.28867513     0.00000000
       4       0.00000000     0.00000000     1.00000000     0.00000000     0.00000000
       5       0.50000000     0.00000000     0.00000000    -0.50000000     0.00000000

               Column   6
       3       0.57735027
    ==== End of matrix output ====

  Coefficients for angular quantum number     3
  to GTOs with labels:
     4f3- 4f2- 4f1- 4f0  4f1+ 4f2+ 4f3+

               Column   1     Column   2     Column   3     Column   4     Column   5
       1       0.00000000     0.61237244     0.00000000     0.00000000     0.00000000
       2       0.00000000     0.00000000     0.00000000     0.00000000     1.00000000
       3       0.00000000    -0.15811388     0.00000000     0.00000000     0.00000000
       4       0.00000000     0.00000000    -0.38729833     0.00000000     0.00000000
       5      -0.15811388     0.00000000     0.00000000    -0.15811388     0.00000000
       6       0.00000000     0.00000000     0.50000000     0.00000000     0.00000000
       7       0.20412415     0.00000000     0.00000000    -0.61237244     0.00000000

               Column   6     Column   7     Column   8     Column   9     Column  10
       1       0.00000000    -0.20412415     0.00000000     0.00000000     0.00000000
       3       0.00000000    -0.15811388     0.00000000     0.63245553     0.00000000
       4       0.00000000     0.00000000    -0.38729833     0.00000000     0.25819889
       5       0.63245553     0.00000000     0.00000000     0.00000000     0.00000000
       6       0.00000000     0.00000000    -0.50000000     0.00000000     0.00000000
    ==== End of matrix output ====

  Coefficients for angular quantum number     4
  to GTOs with labels:
     5g4- 5g3- 5g2- 5g1- 5g0  5g1+ 5g2+ 5g3+ 5g4+

               Column   1     Column   2     Column   3     Column   4     Column   5
       1       0.00000000     0.28867513     0.00000000     0.00000000     0.00000000
       2       0.00000000     0.00000000     0.00000000     0.00000000     0.61237244
       3       0.00000000    -0.10910895     0.00000000     0.00000000     0.00000000
       4       0.00000000     0.00000000     0.00000000     0.00000000    -0.23145502
       5       0.03659625     0.00000000     0.00000000     0.07319251     0.00000000
       6       0.00000000     0.00000000    -0.23145502     0.00000000     0.00000000
       7      -0.05455447     0.00000000     0.00000000     0.00000000     0.00000000
       8       0.00000000     0.00000000     0.20412415     0.00000000     0.00000000
       9       0.07216878     0.00000000     0.00000000    -0.43301270     0.00000000

               Column   6     Column   7     Column   8     Column   9     Column  10
       1       0.00000000    -0.28867513     0.00000000     0.00000000     0.00000000
       3       0.00000000    -0.10910895     0.00000000     0.65465367     0.00000000
       5      -0.29277002     0.00000000     0.00000000     0.00000000     0.00000000
       6       0.00000000     0.00000000    -0.23145502     0.00000000     0.30860670
       7       0.32732684     0.00000000     0.00000000     0.00000000     0.00000000
       8       0.00000000     0.00000000    -0.61237244     0.00000000     0.00000000

               Column  11     Column  12     Column  13     Column  14     Column  15
       2       0.00000000    -0.20412415     0.00000000     0.00000000     0.00000000
       4       0.00000000    -0.23145502     0.00000000     0.30860670     0.00000000
       5       0.03659625     0.00000000    -0.29277002     0.00000000     0.09759001
       7       0.05455447     0.00000000    -0.32732684     0.00000000     0.00000000
       9       0.07216878     0.00000000     0.00000000     0.00000000     0.00000000
    ==== End of matrix output ====

  Coefficients for angular quantum number     5
  to GTOs with labels:
     6h5- 6h4- 6h3- 6h2- 6h1- 6h0  6h1+ 6h2+ 6h3+ 6h4+ 6h5+

               Column   1     Column   2     Column   3     Column   4     Column   5
       1       0.00000000     0.11410887     0.00000000     0.00000000     0.00000000
       2       0.00000000     0.00000000     0.00000000     0.00000000     0.28867513
       3       0.00000000    -0.05103104     0.00000000     0.00000000     0.00000000
       4       0.00000000     0.00000000     0.00000000     0.00000000    -0.16666667
       5       0.00000000     0.01574852     0.00000000     0.00000000     0.00000000
       6       0.00000000     0.00000000     0.06099375     0.00000000     0.00000000
       7       0.01574852     0.00000000     0.00000000     0.03149704     0.00000000
       8       0.00000000     0.00000000    -0.08333333     0.00000000     0.00000000
       9      -0.01701035     0.00000000     0.00000000     0.03402069     0.00000000
      10       0.00000000     0.00000000     0.07216878     0.00000000     0.00000000
      11       0.02282177     0.00000000     0.00000000    -0.22821773     0.00000000

               Column   6     Column   7     Column   8     Column   9     Column  10
       1       0.00000000    -0.22821773     0.00000000     0.00000000     0.00000000
       3       0.00000000    -0.03402069     0.00000000     0.40824829     0.00000000
       5       0.00000000     0.03149704     0.00000000    -0.18898224     0.00000000
       6       0.00000000     0.00000000     0.12198751     0.00000000    -0.16265001
       7      -0.18898224     0.00000000     0.00000000     0.00000000     0.00000000
       8       0.00000000     0.00000000     0.00000000     0.00000000     0.16666667
       9       0.13608276     0.00000000     0.00000000     0.00000000     0.00000000
      10       0.00000000     0.00000000    -0.43301270     0.00000000     0.00000000

               Column  11     Column  12     Column  13     Column  14     Column  15
       2       0.00000000    -0.28867513     0.00000000     0.00000000     0.00000000
       4       0.00000000    -0.16666667     0.00000000     0.33333333     0.00000000
       7       0.01574852     0.00000000    -0.18898224     0.00000000     0.12598816
       9       0.05103104     0.00000000    -0.40824829     0.00000000     0.00000000
      11       0.11410887     0.00000000     0.00000000     0.00000000     0.00000000

               Column  16     Column  17     Column  18     Column  19     Column  20
       1       0.02282177     0.00000000     0.00000000     0.00000000     0.00000000
       3       0.01701035     0.00000000    -0.13608276     0.00000000     0.00000000
       5       0.01574852     0.00000000    -0.18898224     0.00000000     0.12598816
       6       0.00000000     0.06099375     0.00000000    -0.16265001     0.00000000
       8       0.00000000     0.08333333     0.00000000    -0.16666667     0.00000000
      10       0.00000000     0.07216878     0.00000000     0.00000000     0.00000000

               Column  21
       6       0.03253000
    ==== End of matrix output ====

  Coefficients for angular quantum number     6
  to GTOs with labels:
     7i6- 7i5- 7i4- 7i3- 7i2- 7i1- 7i0  7i1+ 7i2+ 7i3+ 7i4+ 7i5+ 7i6+

               Column   1     Column   2     Column   3     Column   4     Column   5
       1       0.00000000     0.03952847     0.00000000     0.00000000     0.00000000
       2       0.00000000     0.00000000     0.00000000     0.00000000     0.11410887
       3       0.00000000    -0.01946247     0.00000000     0.00000000     0.00000000
       4       0.00000000     0.00000000     0.00000000     0.00000000    -0.07995027
       5       0.00000000     0.00888336     0.00000000     0.00000000     0.00000000
       6       0.00000000     0.00000000     0.00000000     0.00000000     0.02809166
       7      -0.00306505     0.00000000     0.00000000    -0.00919515     0.00000000
       8       0.00000000     0.00000000     0.02809166     0.00000000     0.00000000
       9       0.00444168     0.00000000     0.00000000     0.00444168     0.00000000
      10       0.00000000     0.00000000    -0.02665009     0.00000000     0.00000000
      11      -0.00486562     0.00000000     0.00000000     0.02432809     0.00000000
      12       0.00000000     0.00000000     0.02282177     0.00000000     0.00000000
      13       0.00658808     0.00000000     0.00000000    -0.09882118     0.00000000

               Column   6     Column   7     Column   8     Column   9     Column  10
       1       0.00000000    -0.13176157     0.00000000     0.00000000     0.00000000
       3       0.00000000     0.00000000     0.00000000     0.19462474     0.00000000
       5       0.00000000     0.01776673     0.00000000    -0.14213381     0.00000000
       7       0.05517093     0.00000000     0.00000000     0.00000000     0.00000000
       8       0.00000000     0.00000000     0.05618332     0.00000000    -0.11236664
       9      -0.07106691     0.00000000     0.00000000     0.00000000     0.00000000
      10       0.00000000     0.00000000     0.05330018     0.00000000     0.07106691
      11       0.04865618     0.00000000     0.00000000     0.00000000     0.00000000
      12       0.00000000     0.00000000    -0.22821773     0.00000000     0.00000000

               Column  11     Column  12     Column  13     Column  14     Column  15
       2       0.00000000    -0.22821773     0.00000000     0.00000000     0.00000000
       4       0.00000000    -0.05330018     0.00000000     0.21320072     0.00000000
       6       0.00000000     0.05618332     0.00000000    -0.11236664     0.00000000
       7      -0.00919515     0.00000000     0.11034185     0.00000000    -0.07356124
       9      -0.00444168     0.00000000     0.00000000     0.00000000     0.07106691
      11       0.02432809     0.00000000    -0.29193710     0.00000000     0.00000000
      13       0.09882118     0.00000000     0.00000000     0.00000000     0.00000000

               Column  16     Column  17     Column  18     Column  19     Column  20
       1       0.03952847     0.00000000     0.00000000     0.00000000     0.00000000
       3       0.01946247     0.00000000    -0.19462474     0.00000000     0.00000000
       5       0.00888336     0.00000000    -0.14213381     0.00000000     0.14213381
       8       0.00000000     0.02809166     0.00000000    -0.11236664     0.00000000
      10       0.00000000     0.07995027     0.00000000    -0.21320072     0.00000000
      12       0.00000000     0.11410887     0.00000000     0.00000000     0.00000000

               Column  21     Column  22     Column  23     Column  24     Column  25
       2       0.00000000     0.00000000     0.02282177     0.00000000     0.00000000
       4       0.00000000     0.00000000     0.02665009     0.00000000    -0.07106691
       6       0.00000000     0.00000000     0.02809166     0.00000000    -0.11236664
       7       0.00000000    -0.00306505     0.00000000     0.05517093     0.00000000
       8       0.04494666     0.00000000     0.00000000     0.00000000     0.00000000
       9       0.00000000    -0.00444168     0.00000000     0.07106691     0.00000000
      11       0.00000000    -0.00486562     0.00000000     0.04865618     0.00000000
      13       0.00000000    -0.00658808     0.00000000     0.00000000     0.00000000

               Column  26     Column  27     Column  28
       6       0.00000000     0.04494666     0.00000000
       7      -0.07356124     0.00000000     0.00980816
       9      -0.07106691     0.00000000     0.00000000
    ==== End of matrix output ====

  Coefficients for angular quantum number     7
  to GTOs with labels:
     8k7- 8k6- 8k5- 8k4- 8k3- 8k2- 8k1- 8k0  8k1+ 8k2+ 8k3+ 8k4+ 8k5+ 8k6+ 8k7+

               Column   1     Column   2     Column   3     Column   4     Column   5
       1       0.00000000     0.01232517     0.00000000     0.00000000     0.00000000
       2       0.00000000     0.00000000     0.00000000     0.00000000     0.03952847
       3       0.00000000    -0.00646014     0.00000000     0.00000000     0.00000000
       4       0.00000000     0.00000000     0.00000000     0.00000000    -0.03100868
       5       0.00000000     0.00350605     0.00000000     0.00000000     0.00000000
       6       0.00000000     0.00000000     0.00000000     0.00000000     0.01652768
       7       0.00000000    -0.00112457     0.00000000     0.00000000     0.00000000
       8       0.00000000     0.00000000    -0.00595065     0.00000000     0.00000000
       9      -0.00112457     0.00000000     0.00000000    -0.00337370     0.00000000
      10       0.00000000     0.00000000     0.00826384     0.00000000     0.00000000
      11       0.00116868     0.00000000     0.00000000    -0.00116868     0.00000000
      12       0.00000000     0.00000000    -0.00775217     0.00000000     0.00000000
      13      -0.00129203     0.00000000     0.00000000     0.01162826     0.00000000
      14       0.00000000     0.00000000     0.00658808     0.00000000     0.00000000
      15       0.00176074     0.00000000     0.00000000    -0.03697550     0.00000000

               Column   6     Column   7     Column   8     Column   9     Column  10
       1       0.00000000    -0.06162583     0.00000000     0.00000000     0.00000000
       3       0.00000000     0.00646014     0.00000000     0.07752171     0.00000000
       5       0.00000000     0.00584342     0.00000000    -0.07012102     0.00000000
       7       0.00000000    -0.00337370     0.00000000     0.02698959     0.00000000
       8       0.00000000     0.00000000    -0.01785194     0.00000000     0.03570388
       9       0.02698959     0.00000000     0.00000000     0.00000000     0.00000000
      10       0.00000000     0.00000000     0.00826384     0.00000000    -0.04407382
      11      -0.02337367     0.00000000     0.00000000     0.00000000     0.00000000
      12       0.00000000     0.00000000     0.03876085     0.00000000     0.02584057
      13       0.01550434     0.00000000     0.00000000     0.00000000     0.00000000
      14       0.00000000     0.00000000    -0.09882118     0.00000000     0.00000000

               Column  11     Column  12     Column  13     Column  14     Column  15
       2       0.00000000    -0.13176157     0.00000000     0.00000000     0.00000000
       4       0.00000000     0.00000000     0.00000000     0.10336228     0.00000000
       6       0.00000000     0.03305537     0.00000000    -0.08814765     0.00000000
       9      -0.00337370     0.00000000     0.05397919     0.00000000    -0.05397919
      11      -0.00584342     0.00000000     0.04674735     0.00000000     0.03116490
      13       0.00646014     0.00000000    -0.15504342     0.00000000     0.00000000
      15       0.06162583     0.00000000     0.00000000     0.00000000     0.00000000

               Column  16     Column  17     Column  18     Column  19     Column  20
       1       0.03697550     0.00000000     0.00000000     0.00000000     0.00000000
       3       0.01162826     0.00000000    -0.15504342     0.00000000     0.00000000
       5       0.00116868     0.00000000    -0.04674735     0.00000000     0.09349470
       7      -0.00337370     0.00000000     0.05397919     0.00000000    -0.05397919
       8       0.00000000    -0.01785194     0.00000000     0.07140776     0.00000000
      10       0.00000000    -0.00826384     0.00000000     0.00000000     0.00000000
      12       0.00000000     0.03876085     0.00000000    -0.15504342     0.00000000
      14       0.00000000     0.09882118     0.00000000     0.00000000     0.00000000

               Column  21     Column  22     Column  23     Column  24     Column  25
       2       0.00000000     0.00000000     0.03952847     0.00000000     0.00000000
       4       0.00000000     0.00000000     0.03100868     0.00000000    -0.10336228
       6       0.00000000     0.00000000     0.01652768     0.00000000    -0.08814765
       8      -0.02856310     0.00000000     0.00000000     0.00000000     0.00000000
       9       0.00000000    -0.00112457     0.00000000     0.02698959     0.00000000
      10       0.02644429     0.00000000     0.00000000     0.00000000     0.00000000
      11       0.00000000    -0.00350605     0.00000000     0.07012102     0.00000000
      13       0.00000000    -0.00646014     0.00000000     0.07752171     0.00000000
      15       0.00000000    -0.01232517     0.00000000     0.00000000     0.00000000

               Column  26     Column  27     Column  28     Column  29     Column  30
       1       0.00000000     0.00000000     0.00000000    -0.00176074     0.00000000
       3       0.00000000     0.00000000     0.00000000    -0.00129203     0.00000000
       5       0.00000000     0.00000000     0.00000000    -0.00116868     0.00000000
       6       0.00000000     0.05288859     0.00000000     0.00000000     0.00000000
       7       0.00000000     0.00000000     0.00000000    -0.00112457     0.00000000
       8       0.00000000     0.00000000     0.00000000     0.00000000    -0.00595065
       9      -0.05397919     0.00000000     0.01439445     0.00000000     0.00000000
      10       0.00000000     0.00000000     0.00000000     0.00000000    -0.00826384
      11      -0.09349470     0.00000000     0.00000000     0.00000000     0.00000000
      12       0.00000000     0.00000000     0.00000000     0.00000000    -0.00775217
      14       0.00000000     0.00000000     0.00000000     0.00000000    -0.00658808

               Column  31     Column  32     Column  33     Column  34     Column  35
       3       0.01550434     0.00000000     0.00000000     0.00000000     0.00000000
       5       0.02337367     0.00000000    -0.03116490     0.00000000     0.00000000
       7       0.02698959     0.00000000    -0.05397919     0.00000000     0.01439445
       8       0.00000000     0.03570388     0.00000000    -0.02856310     0.00000000
      10       0.00000000     0.04407382     0.00000000    -0.02644429     0.00000000
      12       0.00000000     0.02584057     0.00000000     0.00000000     0.00000000

               Column  36
       8       0.00272030
    ==== End of matrix output ====

  Atomic type no.    1
  --------------------
  Nuclear charge:  21.00000
  Number of symmetry independent centers:    1
   Symmetry independent centers:
      Sc     0.000000000000000   0.000000000000000   0.000000000000000
  Number of basis sets to read;    2
 BASLIB: Q, QEFF, INTQ   21.0000000000000        21.0000000000000     
          21
 BASLIB: BASNAM 
 aug-cc-pVTZ-J                                                                  
  


                                Output from BASLIB
                                ------------------

 ISTART =          15
 BASTMP = aug-cc-pVTZ-J                                                                   
 IPOLST =           0
 POLFUN = F
 ANO    = F
 SADLEJ = F
 NQVD   = F
  Basis set file used for this atomic type with Z =  21 :
  Trying file: "/work/sdujk/kjellgren/MCsrMGGA/spin-spin_metals/hf/aug-cc-pVTZ-J"
  Trying file: "/gpfs/gss1/work/sdujk/kjellgren/programs/dalton/srdft_dalton_intel/basis/aug-cc-pVTZ-J"
     "/gpfs/gss1/work/sdujk/kjellgren/programs/dalton/srdft_dalton_intel/basis/aug-cc-pVTZ-J"

  Output from FIND_POS... read INTEXP, INTORB, INTISG        25        17         0


                               Output from READ_NU
                               -------------------

 INTEXP,INTORB,NBLOCK:          25          17           1
 IPRINT=          10
 READ_NU read - J,NBLOCK,ALPHA(J,NBLOCK)           1           1
   5400187546.00000     
 READ_NU read - CPRIMU:  7.090000000000000E-010 -2.059100000000000E-010
 -7.359000000000000E-011  0.000000000000000E+000  0.000000000000000E+000
  0.000000000000000E+000  0.000000000000000E+000  0.000000000000000E+000
  0.000000000000000E+000  0.000000000000000E+000  0.000000000000000E+000
  0.000000000000000E+000  0.000000000000000E+000  0.000000000000000E+000
  0.000000000000000E+000  0.000000000000000E+000  0.000000000000000E+000
 READ_NU read - J,NBLOCK,ALPHA(J,NBLOCK)           2           1
   808649286.000000     
 READ_NU read - CPRIMU:  5.300000000000000E-009 -1.550300000000000E-009
 -5.549200000000000E-010  0.000000000000000E+000  0.000000000000000E+000
  0.000000000000000E+000  0.000000000000000E+000  0.000000000000000E+000
  0.000000000000000E+000  0.000000000000000E+000  0.000000000000000E+000
  0.000000000000000E+000  0.000000000000000E+000  0.000000000000000E+000
  0.000000000000000E+000  0.000000000000000E+000  0.000000000000000E+000
 READ_NU read - J,NBLOCK,ALPHA(J,NBLOCK)           3           1
   121090918.100000     
 READ_NU read - CPRIMU:  7.382000000000000E-008 -2.139600000000000E-008
 -7.708199999999999E-009  0.000000000000000E+000  0.000000000000000E+000
  0.000000000000000E+000  0.000000000000000E+000  0.000000000000000E+000
  0.000000000000000E+000  0.000000000000000E+000  0.000000000000000E+000
  0.000000000000000E+000  0.000000000000000E+000  0.000000000000000E+000
  0.000000000000000E+000  0.000000000000000E+000  0.000000000000000E+000
 READ_NU read - J,NBLOCK,ALPHA(J,NBLOCK)           4           1
   18132719.2100000     
 READ_NU read - CPRIMU:  6.360700000000000E-007 -1.857500000000000E-007
 -6.656600000000000E-008  0.000000000000000E+000  0.000000000000000E+000
  0.000000000000000E+000  0.000000000000000E+000  0.000000000000000E+000
  0.000000000000000E+000  0.000000000000000E+000  0.000000000000000E+000
  0.000000000000000E+000  0.000000000000000E+000  0.000000000000000E+000
  0.000000000000000E+000  0.000000000000000E+000  0.000000000000000E+000
 READ_NU read - J,NBLOCK,ALPHA(J,NBLOCK)           5           1
   2715278.00000000     
 READ_NU read - CPRIMU:  8.334700000000000E-006 -2.417500000000000E-006
 -8.705400000000000E-007  0.000000000000000E+000  0.000000000000000E+000
  0.000000000000000E+000  0.000000000000000E+000  0.000000000000000E+000
  0.000000000000000E+000  0.000000000000000E+000  0.000000000000000E+000
  0.000000000000000E+000  0.000000000000000E+000  0.000000000000000E+000
  0.000000000000000E+000  0.000000000000000E+000  0.000000000000000E+000
 READ_NU read - J,NBLOCK,ALPHA(J,NBLOCK)           6           1
   406598.400000000     
 READ_NU read - CPRIMU:  7.095199999999999E-005 -2.071800000000000E-005
 -7.425700000000000E-006  0.000000000000000E+000  0.000000000000000E+000
  0.000000000000000E+000  0.000000000000000E+000  0.000000000000000E+000
  0.000000000000000E+000  0.000000000000000E+000  0.000000000000000E+000
  0.000000000000000E+000  0.000000000000000E+000  0.000000000000000E+000
  0.000000000000000E+000  0.000000000000000E+000  0.000000000000000E+000
 READ_NU read - J,NBLOCK,ALPHA(J,NBLOCK)           7           1
   92530.0400000000     
 READ_NU read - CPRIMU:  3.692200000000000E-004 -1.069100000000000E-004
 -3.856100000000000E-005  0.000000000000000E+000  0.000000000000000E+000
  0.000000000000000E+000  0.000000000000000E+000  0.000000000000000E+000
  0.000000000000000E+000  0.000000000000000E+000  0.000000000000000E+000
  0.000000000000000E+000  0.000000000000000E+000  0.000000000000000E+000
  0.000000000000000E+000  0.000000000000000E+000  0.000000000000000E+000
 READ_NU read - J,NBLOCK,ALPHA(J,NBLOCK)           8           1
   26207.9200000000     
 READ_NU read - CPRIMU:  1.559790000000000E-003 -4.575000000000000E-004
 -1.636800000000000E-004  0.000000000000000E+000  0.000000000000000E+000
  0.000000000000000E+000  0.000000000000000E+000  0.000000000000000E+000
  0.000000000000000E+000  0.000000000000000E+000  0.000000000000000E+000
  0.000000000000000E+000  0.000000000000000E+000  0.000000000000000E+000
  0.000000000000000E+000  0.000000000000000E+000  0.000000000000000E+000
 READ_NU read - J,NBLOCK,ALPHA(J,NBLOCK)           9           1
   8549.42900000000     
 READ_NU read - CPRIMU:  5.648310000000000E-003 -1.638700000000000E-003
 -5.926400000000000E-004  0.000000000000000E+000  0.000000000000000E+000
  0.000000000000000E+000  0.000000000000000E+000  0.000000000000000E+000
  0.000000000000000E+000  0.000000000000000E+000  0.000000000000000E+000
  0.000000000000000E+000  0.000000000000000E+000  0.000000000000000E+000
  0.000000000000000E+000  0.000000000000000E+000  0.000000000000000E+000
 READ_NU read - J,NBLOCK,ALPHA(J,NBLOCK)          10           1
   3085.97500000000     
 READ_NU read - CPRIMU:  1.809795000000000E-002 -5.399260000000000E-003
 -1.929950000000000E-003  0.000000000000000E+000  0.000000000000000E+000
  0.000000000000000E+000  0.000000000000000E+000  0.000000000000000E+000
  0.000000000000000E+000  0.000000000000000E+000  0.000000000000000E+000
  0.000000000000000E+000  0.000000000000000E+000  0.000000000000000E+000
  0.000000000000000E+000  0.000000000000000E+000  0.000000000000000E+000
 READ_NU read - J,NBLOCK,ALPHA(J,NBLOCK)          11           1
   1203.17200000000     
 READ_NU read - CPRIMU:  5.161657000000000E-002 -1.541276000000000E-002
 -5.609190000000000E-003  0.000000000000000E+000  0.000000000000000E+000
  0.000000000000000E+000  0.000000000000000E+000  0.000000000000000E+000
  0.000000000000000E+000  0.000000000000000E+000  0.000000000000000E+000
  0.000000000000000E+000  0.000000000000000E+000  0.000000000000000E+000
  0.000000000000000E+000  0.000000000000000E+000  0.000000000000000E+000
 READ_NU read - J,NBLOCK,ALPHA(J,NBLOCK)          12           1
   498.486900000000     
 READ_NU read - CPRIMU:  0.000000000000000E+000  0.000000000000000E+000
  0.000000000000000E+000   1.00000000000000       0.000000000000000E+000
  0.000000000000000E+000  0.000000000000000E+000  0.000000000000000E+000
  0.000000000000000E+000  0.000000000000000E+000  0.000000000000000E+000
  0.000000000000000E+000  0.000000000000000E+000  0.000000000000000E+000
  0.000000000000000E+000  0.000000000000000E+000  0.000000000000000E+000
 READ_NU read - J,NBLOCK,ALPHA(J,NBLOCK)          13           1
   216.736000000000     
 READ_NU read - CPRIMU:  0.000000000000000E+000  0.000000000000000E+000
  0.000000000000000E+000  0.000000000000000E+000   1.00000000000000     
  0.000000000000000E+000  0.000000000000000E+000  0.000000000000000E+000
  0.000000000000000E+000  0.000000000000000E+000  0.000000000000000E+000
  0.000000000000000E+000  0.000000000000000E+000  0.000000000000000E+000
  0.000000000000000E+000  0.000000000000000E+000  0.000000000000000E+000
 READ_NU read - J,NBLOCK,ALPHA(J,NBLOCK)          14           1
   97.8747600000000     
 READ_NU read - CPRIMU:  0.000000000000000E+000  0.000000000000000E+000
  0.000000000000000E+000  0.000000000000000E+000  0.000000000000000E+000
   1.00000000000000       0.000000000000000E+000  0.000000000000000E+000
  0.000000000000000E+000  0.000000000000000E+000  0.000000000000000E+000
  0.000000000000000E+000  0.000000000000000E+000  0.000000000000000E+000
  0.000000000000000E+000  0.000000000000000E+000  0.000000000000000E+000
 READ_NU read - J,NBLOCK,ALPHA(J,NBLOCK)          15           1
   45.2043300000000     
 READ_NU read - CPRIMU:  0.000000000000000E+000  0.000000000000000E+000
  0.000000000000000E+000  0.000000000000000E+000  0.000000000000000E+000
  0.000000000000000E+000   1.00000000000000       0.000000000000000E+000
  0.000000000000000E+000  0.000000000000000E+000  0.000000000000000E+000
  0.000000000000000E+000  0.000000000000000E+000  0.000000000000000E+000
  0.000000000000000E+000  0.000000000000000E+000  0.000000000000000E+000
 READ_NU read - J,NBLOCK,ALPHA(J,NBLOCK)          16           1
   20.2118700000000     
 READ_NU read - CPRIMU:  0.000000000000000E+000  0.000000000000000E+000
  0.000000000000000E+000  0.000000000000000E+000  0.000000000000000E+000
  0.000000000000000E+000  0.000000000000000E+000   1.00000000000000     
  0.000000000000000E+000  0.000000000000000E+000  0.000000000000000E+000
  0.000000000000000E+000  0.000000000000000E+000  0.000000000000000E+000
  0.000000000000000E+000  0.000000000000000E+000  0.000000000000000E+000
 READ_NU read - J,NBLOCK,ALPHA(J,NBLOCK)          17           1
   9.57475100000000     
 READ_NU read - CPRIMU:  0.000000000000000E+000  0.000000000000000E+000
  0.000000000000000E+000  0.000000000000000E+000  0.000000000000000E+000
  0.000000000000000E+000  0.000000000000000E+000  0.000000000000000E+000
   1.00000000000000       0.000000000000000E+000  0.000000000000000E+000
  0.000000000000000E+000  0.000000000000000E+000  0.000000000000000E+000
  0.000000000000000E+000  0.000000000000000E+000  0.000000000000000E+000
 READ_NU read - J,NBLOCK,ALPHA(J,NBLOCK)          18           1
   4.54034600000000     
 READ_NU read - CPRIMU:  0.000000000000000E+000  0.000000000000000E+000
  0.000000000000000E+000  0.000000000000000E+000  0.000000000000000E+000
  0.000000000000000E+000  0.000000000000000E+000  0.000000000000000E+000
  0.000000000000000E+000   1.00000000000000       0.000000000000000E+000
  0.000000000000000E+000  0.000000000000000E+000  0.000000000000000E+000
  0.000000000000000E+000  0.000000000000000E+000  0.000000000000000E+000
 READ_NU read - J,NBLOCK,ALPHA(J,NBLOCK)          19           1
   1.99568700000000     
 READ_NU read - CPRIMU:  0.000000000000000E+000  0.000000000000000E+000
  0.000000000000000E+000  0.000000000000000E+000  0.000000000000000E+000
  0.000000000000000E+000  0.000000000000000E+000  0.000000000000000E+000
  0.000000000000000E+000  0.000000000000000E+000   1.00000000000000     
  0.000000000000000E+000  0.000000000000000E+000  0.000000000000000E+000
  0.000000000000000E+000  0.000000000000000E+000  0.000000000000000E+000
 READ_NU read - J,NBLOCK,ALPHA(J,NBLOCK)          20           1
  0.942215000000000     
 READ_NU read - CPRIMU:  0.000000000000000E+000  0.000000000000000E+000
  0.000000000000000E+000  0.000000000000000E+000  0.000000000000000E+000
  0.000000000000000E+000  0.000000000000000E+000  0.000000000000000E+000
  0.000000000000000E+000  0.000000000000000E+000  0.000000000000000E+000
   1.00000000000000       0.000000000000000E+000  0.000000000000000E+000
  0.000000000000000E+000  0.000000000000000E+000  0.000000000000000E+000
 READ_NU read - J,NBLOCK,ALPHA(J,NBLOCK)          21           1
  0.417845000000000     
 READ_NU read - CPRIMU:  0.000000000000000E+000  0.000000000000000E+000
  0.000000000000000E+000  0.000000000000000E+000  0.000000000000000E+000
  0.000000000000000E+000  0.000000000000000E+000  0.000000000000000E+000
  0.000000000000000E+000  0.000000000000000E+000  0.000000000000000E+000
  0.000000000000000E+000   1.00000000000000       0.000000000000000E+000
  0.000000000000000E+000  0.000000000000000E+000  0.000000000000000E+000
 READ_NU read - J,NBLOCK,ALPHA(J,NBLOCK)          22           1
  9.576100000000000E-002
 READ_NU read - CPRIMU:  0.000000000000000E+000  0.000000000000000E+000
  0.000000000000000E+000  0.000000000000000E+000  0.000000000000000E+000
  0.000000000000000E+000  0.000000000000000E+000  0.000000000000000E+000
  0.000000000000000E+000  0.000000000000000E+000  0.000000000000000E+000
  0.000000000000000E+000  0.000000000000000E+000   1.00000000000000     
  0.000000000000000E+000  0.000000000000000E+000  0.000000000000000E+000
 READ_NU read - J,NBLOCK,ALPHA(J,NBLOCK)          23           1
  5.135100000000000E-002
 READ_NU read - CPRIMU:  0.000000000000000E+000  0.000000000000000E+000
  0.000000000000000E+000  0.000000000000000E+000  0.000000000000000E+000
  0.000000000000000E+000  0.000000000000000E+000  0.000000000000000E+000
  0.000000000000000E+000  0.000000000000000E+000  0.000000000000000E+000
  0.000000000000000E+000  0.000000000000000E+000  0.000000000000000E+000
   1.00000000000000       0.000000000000000E+000  0.000000000000000E+000
 READ_NU read - J,NBLOCK,ALPHA(J,NBLOCK)          24           1
  2.387800000000000E-002
 READ_NU read - CPRIMU:  0.000000000000000E+000  0.000000000000000E+000
  0.000000000000000E+000  0.000000000000000E+000  0.000000000000000E+000
  0.000000000000000E+000  0.000000000000000E+000  0.000000000000000E+000
  0.000000000000000E+000  0.000000000000000E+000  0.000000000000000E+000
  0.000000000000000E+000  0.000000000000000E+000  0.000000000000000E+000
  0.000000000000000E+000   1.00000000000000       0.000000000000000E+000
 READ_NU read - J,NBLOCK,ALPHA(J,NBLOCK)          25           1
  1.110000000000000E-002
 READ_NU read - CPRIMU:  0.000000000000000E+000  0.000000000000000E+000
  0.000000000000000E+000  0.000000000000000E+000  0.000000000000000E+000
  0.000000000000000E+000  0.000000000000000E+000  0.000000000000000E+000
  0.000000000000000E+000  0.000000000000000E+000  0.000000000000000E+000
  0.000000000000000E+000  0.000000000000000E+000  0.000000000000000E+000
  0.000000000000000E+000  0.000000000000000E+000   1.00000000000000     
 READ_NU...NBLOCK,INTEXP=           1          25
   5400187546.00000        808649286.000000        121090918.100000     
   18132719.2100000        2715278.00000000        406598.400000000     
   92530.0400000000        26207.9200000000        8549.42900000000     
   3085.97500000000        1203.17200000000        498.486900000000     
   216.736000000000        97.8747600000000        45.2043300000000     
   20.2118700000000        9.57475100000000        4.54034600000000     
   1.99568700000000       0.942215000000000       0.417845000000000     
  9.576100000000000E-002  5.135100000000000E-002  2.387800000000000E-002
  1.110000000000000E-002

  Output from FIND_POS... read INTEXP, INTORB, INTISG        18        10         0


                               Output from READ_NU
                               -------------------

 INTEXP,INTORB,NBLOCK:          18          10           2
 IPRINT=          10
 READ_NU read - J,NBLOCK,ALPHA(J,NBLOCK)           1           2
   44742.9760600000     
 READ_NU read - CPRIMU: -2.992400000000000E-006  9.631299999999999E-007
  0.000000000000000E+000  0.000000000000000E+000  0.000000000000000E+000
  0.000000000000000E+000  0.000000000000000E+000  0.000000000000000E+000
  0.000000000000000E+000  0.000000000000000E+000
 READ_NU read - J,NBLOCK,ALPHA(J,NBLOCK)           2           2
   10592.1900000000     
 READ_NU read - CPRIMU: -3.930400000000000E-005  1.428400000000000E-005
  0.000000000000000E+000  0.000000000000000E+000  0.000000000000000E+000
  0.000000000000000E+000  0.000000000000000E+000  0.000000000000000E+000
  0.000000000000000E+000  0.000000000000000E+000
 READ_NU read - J,NBLOCK,ALPHA(J,NBLOCK)           3           2
   2507.53300000000     
 READ_NU read - CPRIMU: -4.156200000000000E-004  1.405900000000000E-004
  0.000000000000000E+000  0.000000000000000E+000  0.000000000000000E+000
  0.000000000000000E+000  0.000000000000000E+000  0.000000000000000E+000
  0.000000000000000E+000  0.000000000000000E+000
 READ_NU read - J,NBLOCK,ALPHA(J,NBLOCK)           4           2
   814.457100000000     
 READ_NU read - CPRIMU: -2.167140000000000E-003  7.822200000000000E-004
  0.000000000000000E+000  0.000000000000000E+000  0.000000000000000E+000
  0.000000000000000E+000  0.000000000000000E+000  0.000000000000000E+000
  0.000000000000000E+000  0.000000000000000E+000
 READ_NU read - J,NBLOCK,ALPHA(J,NBLOCK)           5           2
   311.519500000000     
 READ_NU read - CPRIMU: -1.030821000000000E-002  3.526550000000000E-003
  0.000000000000000E+000  0.000000000000000E+000  0.000000000000000E+000
  0.000000000000000E+000  0.000000000000000E+000  0.000000000000000E+000
  0.000000000000000E+000  0.000000000000000E+000
 READ_NU read - J,NBLOCK,ALPHA(J,NBLOCK)           6           2
   131.961700000000     
 READ_NU read - CPRIMU: -3.443645000000000E-002  1.258733000000000E-002
  0.000000000000000E+000  0.000000000000000E+000  0.000000000000000E+000
  0.000000000000000E+000  0.000000000000000E+000  0.000000000000000E+000
  0.000000000000000E+000  0.000000000000000E+000
 READ_NU read - J,NBLOCK,ALPHA(J,NBLOCK)           7           2
   59.9871800000000     
 READ_NU read - CPRIMU: -9.670512000000001E-002  3.436619000000000E-002
  0.000000000000000E+000  0.000000000000000E+000  0.000000000000000E+000
  0.000000000000000E+000  0.000000000000000E+000  0.000000000000000E+000
  0.000000000000000E+000  0.000000000000000E+000
 READ_NU read - J,NBLOCK,ALPHA(J,NBLOCK)           8           2
   28.6625000000000     
 READ_NU read - CPRIMU: -0.208644450000000       8.168069999999999E-002
  0.000000000000000E+000  0.000000000000000E+000  0.000000000000000E+000
  0.000000000000000E+000  0.000000000000000E+000  0.000000000000000E+000
  0.000000000000000E+000  0.000000000000000E+000
 READ_NU read - J,NBLOCK,ALPHA(J,NBLOCK)           9           2
   14.1085100000000     
 READ_NU read - CPRIMU: -0.323314380000000       0.122967760000000     
  0.000000000000000E+000  0.000000000000000E+000  0.000000000000000E+000
  0.000000000000000E+000  0.000000000000000E+000  0.000000000000000E+000
  0.000000000000000E+000  0.000000000000000E+000
 READ_NU read - J,NBLOCK,ALPHA(J,NBLOCK)          10           2
   7.10370600000000     
 READ_NU read - CPRIMU: -0.323158180000000       0.135034130000000     
  0.000000000000000E+000  0.000000000000000E+000  0.000000000000000E+000
  0.000000000000000E+000  0.000000000000000E+000  0.000000000000000E+000
  0.000000000000000E+000  0.000000000000000E+000
 READ_NU read - J,NBLOCK,ALPHA(J,NBLOCK)          11           2
   3.60920000000000     
 READ_NU read - CPRIMU:  0.000000000000000E+000  0.000000000000000E+000
   1.00000000000000       0.000000000000000E+000  0.000000000000000E+000
  0.000000000000000E+000  0.000000000000000E+000  0.000000000000000E+000
  0.000000000000000E+000  0.000000000000000E+000
 READ_NU read - J,NBLOCK,ALPHA(J,NBLOCK)          12           2
   1.77607000000000     
 READ_NU read - CPRIMU:  0.000000000000000E+000  0.000000000000000E+000
  0.000000000000000E+000   1.00000000000000       0.000000000000000E+000
  0.000000000000000E+000  0.000000000000000E+000  0.000000000000000E+000
  0.000000000000000E+000  0.000000000000000E+000
 READ_NU read - J,NBLOCK,ALPHA(J,NBLOCK)          13           2
  0.854760000000000     
 READ_NU read - CPRIMU:  0.000000000000000E+000  0.000000000000000E+000
[...]
  19 F   :3d2-  -0.0067   0.0020  -0.0329   0.0874   0.1153  -0.0026  -0.1739
  22 F   :2px    0.3525   0.3758  -0.0059  -0.0372  -0.0569  -0.1042  -0.1178
  24 F   :2px   -0.0018  -0.0015  -0.0014   0.0032  -0.0173   0.0007   0.0001
  25 F   :2px    0.1811   0.1934   0.0108  -0.0539   0.1573  -0.0811  -0.0567
  26 F   :2px    0.0497   0.0708   0.5204  -1.4548   2.3896  -0.1409   2.1917
  28 F   :3d2-  -0.0031  -0.0020   0.0064  -0.0144   0.0243  -0.0077   0.0322
  29 F   :3d2-  -0.0067  -0.0020  -0.0329   0.0874  -0.1153  -0.0026  -0.1739
  34 F   :3d2-   0.0008   0.0000  -0.0128   0.0240  -0.0000  -0.0064  -0.0008

    Orbital         8        9       10       11       12
   1 Sc  :3d2-  -0.0354  -0.0000   0.0743  -0.0422   0.0196
   2 Sc  :3d2-  -0.0799   0.0000   0.1805  -0.0676   0.0214
   3 Sc  :3d2-  -0.0774  -0.0000   0.1175  -0.1581   0.0988
   4 Sc  :3d2-  -0.1834   0.0000   0.7207   0.2915  -0.1957
   5 Sc  :3d2-  -0.0086   0.0000  -3.4765  -3.0286   0.8548
   6 Sc  :3d2-  -0.7681   0.0000  -1.9313  -2.1293   0.0849
   7 Sc  :3d2-   0.1387  -0.0000   0.1756   0.1963   0.0219
   8 Sc  :5g4-   0.0000   0.0463   0.0000   0.0000  -0.0000
   9 Sc  :5g2-  -0.0196  -0.0000   0.0167   0.0447  -0.0578
  10 Sc  :5g4-  -0.0000   3.3383   0.0000   0.0000  -0.0000
  11 Sc  :5g2-   1.1648  -0.0000   0.8549   0.5330   0.7285
  12 F   :2py   -0.0061  -0.1223   0.1284   0.1320  -0.0776
  13 F   :2py    0.0081  -0.0219   0.0100  -0.0076   0.0096
  14 F   :2py   -0.0235   0.0669  -0.0270   0.0289  -0.0354
  15 F   :2py    0.1571  -0.8491   0.4075   0.0900   0.1194
  16 F   :2py    0.2837  -1.9807   1.3421   1.5351  -0.1796
  17 F   :3d2-  -0.0011   0.0047  -0.0001  -0.0222   0.0051
  18 F   :3d2-   0.0046  -0.0177   0.0341   0.0835  -0.0222
  19 F   :3d2-  -0.0367   0.1881  -0.1742  -0.8005   0.1892
  22 F   :2px   -0.0061   0.1223   0.1284   0.1320  -0.0776
  23 F   :2px    0.0081   0.0219   0.0100  -0.0076   0.0096
  24 F   :2px   -0.0235  -0.0669  -0.0270   0.0289  -0.0354
  25 F   :2px    0.1571   0.8491   0.4075   0.0900   0.1194
  26 F   :2px    0.2837   1.9807   1.3421   1.5351  -0.1796
  27 F   :3d2-  -0.0011  -0.0047  -0.0001  -0.0222   0.0051
  28 F   :3d2-   0.0046   0.0177   0.0341   0.0835  -0.0222
  29 F   :3d2-  -0.0367  -0.1881  -0.1742  -0.8005   0.1892
  32 F   :3d2-  -0.0005  -0.0000  -0.0012  -0.0078  -0.0314
  33 F   :3d2-   0.0349   0.0000   0.0078   0.0153   0.0928
  34 F   :3d2-  -0.1246  -0.0000  -0.0524  -0.2245  -0.9781

 Molecular orbitals for symmetry species 5  (B1u)
 ------------------------------------------------

    Orbital         1        2        3        4        5        6        7
   1 Sc  :2pz    0.0010  -0.7581  -0.0870   0.0382   0.0293   0.0000  -0.0139
   2 Sc  :2pz    0.0010   0.1220  -0.4075   0.1554   0.0875   0.0000  -0.0412
   3 Sc  :2pz   -0.0002   0.1585   0.0120  -0.0068  -0.0074  -0.0000   0.0036
   4 Sc  :2pz    0.0006   0.0225   0.3072  -0.1078  -0.0483   0.0000   0.0219
   5 Sc  :2pz   -0.0011   0.0014   0.4452  -0.1816  -0.1241  -0.0000   0.0628
   6 Sc  :2pz    0.0028  -0.0004   0.2743  -0.0712  -0.0004   0.0000  -0.0142
   7 Sc  :2pz   -0.0075   0.0004   0.0064  -0.0468  -0.0304  -0.0000   0.0857
   8 Sc  :2pz   -0.0037  -0.0000  -0.0262  -0.0314  -0.2220  -0.0000  -0.0268
   9 Sc  :2pz    0.0006   0.0000   0.0016   0.0003   0.0257   0.0000  -0.0160
  11 Sc  :4f0   -0.0001   0.0000   0.0019   0.0041   0.0064   0.0000  -0.0144
  13 Sc  :4f0   -0.0032   0.0001  -0.0065  -0.0108  -0.0177  -0.0000  -0.0038
  15 Sc  :4f0    0.0003  -0.0000   0.0002   0.0007   0.0128  -0.0000  -0.0017
  17 F   :2pz   -0.0000   0.0000   0.0047  -0.0006   0.2443  -0.3689   0.2682
  20 F   :2pz   -0.0001   0.0000   0.0018   0.0001   0.1236  -0.1853   0.1330
  21 F   :2pz    0.0003   0.0000   0.0013   0.0014   0.0445  -0.0428   0.0435
  27 F   :2pz   -0.0000   0.0000   0.0047  -0.0006   0.2443   0.3689   0.2682
  30 F   :2pz   -0.0001   0.0000   0.0018   0.0001   0.1236   0.1853   0.1330
  31 F   :2pz    0.0003   0.0000   0.0013   0.0014   0.0445   0.0428   0.0435
  37 F   :1s     0.7065  -0.0000  -0.0457  -0.1538   0.0061   0.0000   0.0011
  40 F   :1s     0.0000  -0.0000  -0.0075  -0.0255   0.0012  -0.0000   0.0000
  41 F   :1s    -0.0001   0.0000  -0.0185  -0.0629   0.0024   0.0000   0.0007
  42 F   :1s     0.0002  -0.0000   0.0351   0.1201  -0.0039  -0.0000  -0.0022
  43 F   :1s    -0.0007   0.0000   0.1101   0.3781  -0.0255   0.0000   0.0052
  44 F   :1s     0.0072  -0.0001   0.0823   0.2818   0.0081   0.0000  -0.0203
  45 F   :1s     0.0022  -0.0001   0.0233   0.0485   0.1095   0.0000  -0.0333
  46 F   :2pz   -0.0005  -0.0000  -0.0272  -0.0001  -0.3673  -0.0000   0.3592
  49 F   :2pz   -0.0030   0.0001  -0.0188  -0.0200  -0.2101  -0.0000   0.2054
  50 F   :2pz   -0.0008   0.0000  -0.0047  -0.0066  -0.0922  -0.0000   0.0716
  55 F   :3d0    0.0007  -0.0000   0.0035   0.0069   0.0085   0.0000  -0.0143

    Orbital         8        9       10       11       12       13       14
   1 Sc  :2pz    0.0187  -0.0290  -0.0065   0.0000   0.0033  -0.0058  -0.0000
   2 Sc  :2pz    0.0204  -0.0262  -0.0100   0.0000   0.0171  -0.0059  -0.0000
   3 Sc  :2pz   -0.0069   0.0111   0.0020   0.0000   0.0000   0.0022   0.0000
   4 Sc  :2pz    0.0207  -0.0406  -0.0010  -0.0000  -0.0215  -0.0067  -0.0000
   5 Sc  :2pz   -0.0495   0.0732   0.0078   0.0000   0.0112   0.0089   0.0000
   6 Sc  :2pz    0.0858  -0.1447   0.0488  -0.0000  -0.2586   0.0339   0.0000
   7 Sc  :2pz   -0.2282   0.3655  -0.2278   0.0000   0.8617   0.3639  -0.0000
   8 Sc  :2pz    1.7499  -4.5907   1.8344   0.0000  15.1641 -15.2326  -0.0000
   9 Sc  :2pz   -2.5452   4.8657  -0.2400  -0.0000  -5.8104   0.4296   0.0000
  10 Sc  :2pz    1.9784  -1.1435  -0.0532   0.0000   0.8571   0.0851  -0.0000
  12 Sc  :4f2+  -0.0000  -0.0000   0.0000  -0.0083  -0.0000  -0.0000  -0.0165
  13 Sc  :4f0    0.0625  -0.1423  -0.2471   0.0000   0.8351  -0.2353  -0.0000
  14 Sc  :4f2+  -0.0000   0.0000   0.0000   0.1628   0.0000   0.0000   0.3647
  15 Sc  :4f0   -0.3464   1.2803  -2.8771  -0.0000  -2.6996   3.0495   0.0000
  16 Sc  :4f2+   0.0000   0.0000   0.0000   2.3498   0.0000  -0.0000   1.9261
  17 F   :2pz   -0.0033  -0.0270  -0.0290  -0.0308  -0.0442  -0.0931   0.0998
  18 F   :2pz   -0.0011   0.0016   0.0050   0.0045  -0.0024  -0.0102   0.0125
  19 F   :2pz    0.0025  -0.0036  -0.0130  -0.0116   0.0051   0.0269  -0.0319
  20 F   :2pz   -0.0108  -0.0027   0.0469   0.0448  -0.0281  -0.2417   0.2629
  21 F   :2pz   -0.0056   0.1305  -1.1888  -1.3004  -0.9054   3.2370  -2.2476
  23 F   :3d1+   0.0006  -0.0007  -0.0048  -0.0080   0.0008   0.0260  -0.0188
  24 F   :3d1+  -0.0083   0.0163   0.0352   0.0517  -0.0354  -0.0947   0.0919
  27 F   :2pz   -0.0033  -0.0270  -0.0290   0.0308  -0.0442  -0.0931  -0.0998
  28 F   :2pz   -0.0011   0.0016   0.0050  -0.0045  -0.0024  -0.0102  -0.0125
  29 F   :2pz    0.0025  -0.0036  -0.0130   0.0116   0.0051   0.0269   0.0319
  30 F   :2pz   -0.0108  -0.0027   0.0469  -0.0448  -0.0281  -0.2417  -0.2629
  31 F   :2pz   -0.0056   0.1305  -1.1888   1.3004  -0.9054   3.2370   2.2476
  33 F   :3d1-   0.0006  -0.0007  -0.0048   0.0080   0.0008   0.0260   0.0188
  34 F   :3d1-  -0.0083   0.0163   0.0352  -0.0517  -0.0354  -0.0947  -0.0919
  37 F   :1s     0.0008   0.0075  -0.0015  -0.0000   0.0220   0.0058   0.0000
  41 F   :1s     0.0020  -0.0002   0.0001  -0.0000   0.0134   0.0031   0.0000
  42 F   :1s    -0.0079   0.0088  -0.0017   0.0000  -0.0372  -0.0075  -0.0000
  43 F   :1s     0.0196  -0.0699   0.0105  -0.0000  -0.0002  -0.0088   0.0000
  44 F   :1s    -0.0616   0.1048  -0.0063   0.0000  -0.1877  -0.1282  -0.0000
  45 F   :1s    -0.2109   0.5800   1.1043  -0.0000  -6.5168   5.6767   0.0000
  46 F   :2pz   -0.0081  -0.0446   0.0274  -0.0000  -0.0780   0.0352   0.0000
  48 F   :2pz    0.0023  -0.0059   0.0193   0.0000  -0.0198   0.0250  -0.0000
  49 F   :2pz   -0.0086  -0.0150  -0.1731   0.0000   0.3547  -0.2297  -0.0000
  50 F   :2pz    0.5728  -1.8412   1.0199   0.0000   6.0068  -3.5353  -0.0000
  53 F   :3d0    0.0021  -0.0069   0.0005   0.0000   0.0317  -0.0061  -0.0000
  55 F   :3d0   -0.0067   0.0331   0.0270  -0.0000  -0.2562   0.0490   0.0000
  56 F   :3d2+   0.0000  -0.0000   0.0000  -0.0343   0.0000  -0.0000  -0.0028

    Orbital        15       16       17
   1 Sc  :2pz   -0.1126   0.0161  -0.0885
   2 Sc  :2pz   -0.1525   0.0240   0.0330
   3 Sc  :2pz    0.0406  -0.0067   0.0431
   4 Sc  :2pz   -0.0832   0.0182  -0.3298
   5 Sc  :2pz    0.3643  -0.1324   0.1870
   6 Sc  :2pz   -0.6755   0.6039  -1.1438
   7 Sc  :2pz    2.6345  -1.3724   3.8778
   8 Sc  :2pz   -4.3593 -24.7448  -6.6097
   9 Sc  :2pz   -1.1319   2.5627   0.4159
  10 Sc  :2pz    0.0475  -0.2492  -0.1570
  11 Sc  :4f0    0.0260   0.0206  -0.0003
  13 Sc  :4f0    0.3607  -1.9064  -0.4984
  15 Sc  :4f0   -0.1130   1.3837   0.1581
  17 F   :2pz    0.0720   0.0414  -0.0784
  20 F   :2pz    0.0550   0.0238  -0.0823
  21 F   :2pz    1.1379   1.7204   0.7568
  23 F   :3d1+   0.0168   0.0088  -0.0013
  24 F   :3d1+  -0.0418   0.0274  -0.0283
  27 F   :2pz    0.0720   0.0414  -0.0784
  30 F   :2pz    0.0550   0.0238  -0.0823
  31 F   :2pz    1.1379   1.7204   0.7568
  33 F   :3d1-   0.0168   0.0088  -0.0013
  34 F   :3d1-  -0.0418   0.0274  -0.0283
  37 F   :1s    -0.0335   0.0315   0.0190
  41 F   :1s    -0.0185   0.0170   0.0012
  42 F   :1s     0.0462  -0.0397   0.0158
  43 F   :1s     0.0533  -0.0785  -0.1635
  44 F   :1s     0.3567  -0.3939   0.2357
  45 F   :1s    -0.1350  15.1277   1.6489
  46 F   :2pz   -0.0706  -0.0939   0.1602
  47 F   :2pz    0.0004  -0.0355  -0.0019
  48 F   :2pz   -0.0076   0.1211   0.0095
  49 F   :2pz    0.1416  -1.5452   0.1510
  50 F   :2pz    1.3779  -5.5371  -0.1315
  53 F   :3d0    0.0310  -0.0165   0.0183
  55 F   :3d0   -0.2082   0.3841  -0.1059

 Molecular orbitals for symmetry species 6  (B2g)
 ------------------------------------------------

    Orbital         1        2        3        4        5        6        7
   1 Sc  :3d1+   0.0092   0.0000  -0.0004  -0.0010  -0.0000   0.1191   0.0058
   2 Sc  :3d1+   0.0199   0.0000   0.0003  -0.0078   0.0000   0.2305  -0.0091
   3 Sc  :3d1+   0.0237   0.0000  -0.0040   0.0114  -0.0000   0.3565   0.0669
   4 Sc  :3d1+   0.0529  -0.0000   0.0235  -0.0975   0.0000   0.3570  -0.2532
   5 Sc  :3d1+  -0.0299  -0.0000  -0.2875   0.8625  -0.0000   0.4745   2.0288
   6 Sc  :3d1+  -0.0230   0.0000  -1.7303   4.1549  -0.0000   0.1645   3.6743
   7 Sc  :3d1+   0.0056  -0.0000   1.4259  -0.6588   0.0000  -0.0039  -0.3678
   8 Sc  :5g1+   0.0008   0.0102  -0.0006   0.0019   0.0323   0.0006   0.0093
   9 Sc  :5g3+   0.0022  -0.0038  -0.0015   0.0050  -0.0122   0.0017   0.0246
  10 Sc  :5g1+  -0.0021  -0.0170  -0.0460   0.1102   1.3251  -0.0194   0.1225
  11 Sc  :5g3+  -0.0055   0.0064  -0.1217   0.2915  -0.5009  -0.0514   0.3242
  12 F   :2pz    0.3525  -0.3758  -0.0059  -0.0372  -0.0569  -0.1042   0.1178
  14 F   :2pz   -0.0018   0.0015  -0.0014   0.0032  -0.0173   0.0007  -0.0001
  15 F   :2pz    0.1811  -0.1934   0.0108  -0.0539   0.1573  -0.0811   0.0567
  16 F   :2pz    0.0497  -0.0708   0.5204  -1.4548   2.3896  -0.1409  -2.1917
  18 F   :3d1+  -0.0031   0.0020   0.0064  -0.0144   0.0243  -0.0077  -0.0322
  19 F   :3d1+  -0.0067   0.0020  -0.0329   0.0874  -0.1153  -0.0026   0.1739
  24 F   :3d1+   0.0008   0.0000  -0.0128   0.0240   0.0000  -0.0064   0.0008
  26 F   :2px    0.3525   0.3758  -0.0059  -0.0372   0.0569  -0.1042   0.1178
  28 F   :2px   -0.0018  -0.0015  -0.0014   0.0032   0.0173   0.0007  -0.0001
  29 F   :2px    0.1811   0.1934   0.0108  -0.0539  -0.1573  -0.0811   0.0567
  30 F   :2px    0.0497   0.0708   0.5204  -1.4548  -2.3896  -0.1409  -2.1917
  32 F   :3d1+  -0.0031  -0.0020   0.0064  -0.0144  -0.0243  -0.0077  -0.0322
  33 F   :3d1+  -0.0067  -0.0020  -0.0329   0.0874   0.1153  -0.0026   0.1739

    Orbital         8        9       10       11       12
   1 Sc  :3d1+  -0.0354  -0.0000  -0.0743  -0.0422   0.0196
   2 Sc  :3d1+  -0.0799  -0.0000  -0.1805  -0.0676   0.0214
   3 Sc  :3d1+  -0.0774  -0.0000  -0.1175  -0.1581   0.0988
   4 Sc  :3d1+  -0.1834   0.0000  -0.7207   0.2915  -0.1957
   5 Sc  :3d1+  -0.0086   0.0000   3.4765  -3.0286   0.8548
   6 Sc  :3d1+  -0.7681   0.0000   1.9313  -2.1293   0.0849
   7 Sc  :3d1+   0.1387  -0.0000  -0.1756   0.1963   0.0219
   8 Sc  :5g1+   0.0069  -0.0433   0.0059  -0.0158   0.0204
   9 Sc  :5g3+   0.0183   0.0164   0.0156  -0.0418   0.0541
  10 Sc  :5g1+  -0.4118  -3.1227   0.3022  -0.1884  -0.2575
  11 Sc  :5g3+  -1.0896   1.1803   0.7997  -0.4986  -0.6814
  12 F   :2pz   -0.0061  -0.1223  -0.1284   0.1320  -0.0776
  13 F   :2pz    0.0081  -0.0219  -0.0100  -0.0076   0.0096
  14 F   :2pz   -0.0235   0.0669   0.0270   0.0289  -0.0354
  15 F   :2pz    0.1571  -0.8491  -0.4075   0.0900   0.1194
  16 F   :2pz    0.2837  -1.9807  -1.3421   1.5351  -0.1796
  17 F   :3d1+  -0.0011   0.0047   0.0001  -0.0222   0.0051
  18 F   :3d1+   0.0046  -0.0177  -0.0341   0.0835  -0.0222
  19 F   :3d1+  -0.0367   0.1881   0.1742  -0.8005   0.1892
  22 F   :3d1+  -0.0005  -0.0000   0.0012  -0.0078  -0.0314
  23 F   :3d1+   0.0349   0.0000  -0.0078   0.0153   0.0928
  24 F   :3d1+  -0.1246  -0.0000   0.0524  -0.2245  -0.9781
  26 F   :2px   -0.0061   0.1223  -0.1284   0.1320  -0.0776
  27 F   :2px    0.0081   0.0219  -0.0100  -0.0076   0.0096
  28 F   :2px   -0.0235  -0.0669   0.0270   0.0289  -0.0354
  29 F   :2px    0.1571   0.8491  -0.4075   0.0900   0.1194
  30 F   :2px    0.2837   1.9807  -1.3421   1.5351  -0.1796
  31 F   :3d1+  -0.0011  -0.0047   0.0001  -0.0222   0.0051
  32 F   :3d1+   0.0046   0.0177  -0.0341   0.0835  -0.0222
  33 F   :3d1+  -0.0367  -0.1881   0.1742  -0.8005   0.1892

 Molecular orbitals for symmetry species 7  (B3g)
 ------------------------------------------------

    Orbital         1        2        3        4        5        6        7
   1 Sc  :3d1-   0.0092   0.0000  -0.0004  -0.0010  -0.0000   0.1191  -0.0058
   2 Sc  :3d1-   0.0199  -0.0000   0.0003  -0.0078   0.0000   0.2305   0.0091
   3 Sc  :3d1-   0.0237   0.0000  -0.0040   0.0114  -0.0000   0.3565  -0.0669
   4 Sc  :3d1-   0.0529  -0.0000   0.0235  -0.0975   0.0000   0.3570   0.2532
   5 Sc  :3d1-  -0.0299  -0.0000  -0.2875   0.8625  -0.0000   0.4745  -2.0288
   6 Sc  :3d1-  -0.0230   0.0000  -1.7303   4.1549  -0.0000   0.1645  -3.6743
   7 Sc  :3d1-   0.0056  -0.0000   1.4259  -0.6588   0.0000  -0.0039   0.3678
   8 Sc  :5g3-  -0.0022   0.0038   0.0015  -0.0050   0.0122  -0.0017   0.0246
   9 Sc  :5g1-   0.0008   0.0102  -0.0006   0.0019   0.0323   0.0006  -0.0093
  10 Sc  :5g3-   0.0055  -0.0064   0.1217  -0.2915   0.5009   0.0514   0.3242
  11 Sc  :5g1-  -0.0021  -0.0170  -0.0460   0.1102   1.3251  -0.0194  -0.1225
  14 F   :3d1-   0.0008   0.0000  -0.0128   0.0240   0.0000  -0.0064  -0.0008
  16 F   :2pz    0.3525  -0.3758  -0.0059  -0.0372  -0.0569  -0.1042  -0.1178
  18 F   :2pz   -0.0018   0.0015  -0.0014   0.0032  -0.0173   0.0007   0.0001
  19 F   :2pz    0.1811  -0.1934   0.0108  -0.0539   0.1573  -0.0811  -0.0567
  20 F   :2pz    0.0497  -0.0708   0.5204  -1.4548   2.3896  -0.1409   2.1917
  22 F   :3d1-  -0.0031   0.0020   0.0064  -0.0144   0.0243  -0.0077   0.0322
  23 F   :3d1-  -0.0067   0.0020  -0.0329   0.0874  -0.1153  -0.0026  -0.1739
  26 F   :2py    0.3525   0.3758  -0.0059  -0.0372   0.0569  -0.1042  -0.1178
  28 F   :2py   -0.0018  -0.0015  -0.0014   0.0032   0.0173   0.0007   0.0001
  29 F   :2py    0.1811   0.1934   0.0108  -0.0539  -0.1573  -0.0811  -0.0567
  30 F   :2py    0.0497   0.0708   0.5204  -1.4548  -2.3896  -0.1409   2.1917
  32 F   :3d1-  -0.0031  -0.0020   0.0064  -0.0144  -0.0243  -0.0077   0.0322
  33 F   :3d1-  -0.0067  -0.0020  -0.0329   0.0874   0.1153  -0.0026  -0.1739

    Orbital         8        9       10       11       12
   1 Sc  :3d1-  -0.0354  -0.0000  -0.0743  -0.0422   0.0196
   2 Sc  :3d1-  -0.0799   0.0000  -0.1805  -0.0676   0.0214
   3 Sc  :3d1-  -0.0774  -0.0000  -0.1175  -0.1581   0.0988
   4 Sc  :3d1-  -0.1834   0.0000  -0.7207   0.2915  -0.1957
   5 Sc  :3d1-  -0.0086   0.0000   3.4765  -3.0286   0.8548
   6 Sc  :3d1-  -0.7681   0.0000   1.9313  -2.1293   0.0849
   7 Sc  :3d1-   0.1387  -0.0000  -0.1756   0.1963   0.0219
   8 Sc  :5g3-  -0.0183  -0.0164  -0.0156   0.0418  -0.0541
   9 Sc  :5g1-   0.0069  -0.0433   0.0059  -0.0158   0.0204
  10 Sc  :5g3-   1.0896  -1.1803  -0.7997   0.4986   0.6814
  11 Sc  :5g1-  -0.4118  -3.1227   0.3022  -0.1884  -0.2575
  12 F   :3d1-  -0.0005  -0.0000   0.0012  -0.0078  -0.0314
  13 F   :3d1-   0.0349   0.0000  -0.0078   0.0153   0.0928
  14 F   :3d1-  -0.1246  -0.0000   0.0524  -0.2245  -0.9781
  16 F   :2pz   -0.0061  -0.1223  -0.1284   0.1320  -0.0776
  17 F   :2pz    0.0081  -0.0219  -0.0100  -0.0076   0.0096
  18 F   :2pz   -0.0235   0.0669   0.0270   0.0289  -0.0354
  19 F   :2pz    0.1571  -0.8491  -0.4075   0.0900   0.1194
  20 F   :2pz    0.2837  -1.9807  -1.3421   1.5351  -0.1796
  21 F   :3d1-  -0.0011   0.0047   0.0001  -0.0222   0.0051
  22 F   :3d1-   0.0046  -0.0177  -0.0341   0.0835  -0.0222
  23 F   :3d1-  -0.0367   0.1881   0.1742  -0.8005   0.1892
  26 F   :2py   -0.0061   0.1223  -0.1284   0.1320  -0.0776
  27 F   :2py    0.0081   0.0219  -0.0100  -0.0076   0.0096
  28 F   :2py   -0.0235  -0.0669   0.0270   0.0289  -0.0354
  29 F   :2py    0.1571   0.8491  -0.4075   0.0900   0.1194
  30 F   :2py    0.2837   1.9807  -1.3421   1.5351  -0.1796
  31 F   :3d1-  -0.0011  -0.0047   0.0001  -0.0222   0.0051
  32 F   :3d1-   0.0046   0.0177  -0.0341   0.0835  -0.0222
  33 F   :3d1-  -0.0367  -0.1881   0.1742  -0.8005   0.1892

 Molecular orbitals for symmetry species 8  (Au )
 ------------------------------------------------

    Orbital         1        2        3        4        5        6        7
   1 Sc  :4f2-  -0.0088   0.0136   0.0000   0.0000   0.0731   1.0690  -0.0000
   2 Sc  :4f2-   0.0618   0.7492   0.0000   0.0000   1.3845  -0.6874   0.0000
   3 Sc  :4f2-  -1.0502  -0.3099  -0.0000  -0.0000   0.1636   0.0537  -0.0000
   4 F   :3d1-   0.0012   0.0083   0.0134   0.0201  -0.0185   0.0017  -0.0012
   5 F   :3d1-  -0.0130  -0.0177  -0.0385  -0.0579   0.0702   0.0484  -0.4643
   6 F   :3d1-   0.0356   0.1515   0.3598   0.5401  -0.6314   0.1268   0.2863
   8 F   :3d1+   0.0012   0.0083   0.0107  -0.0217  -0.0185   0.0017  -0.0007
   9 F   :3d1+  -0.0130  -0.0177  -0.0308   0.0623   0.0702   0.0484  -0.2755
  10 F   :3d1+   0.0356   0.1515   0.2879  -0.5816  -0.6314   0.1268   0.1699
  12 F   :3d2-   0.0012   0.0083  -0.0242   0.0015  -0.0185   0.0017   0.0019
  13 F   :3d2-  -0.0130  -0.0177   0.0694  -0.0044   0.0702   0.0484   0.7398
  14 F   :3d2-   0.0356   0.1515  -0.6476   0.0415  -0.6314   0.1268  -0.4562

    Orbital         8        9       10
   1 Sc  :4f2-  -0.0000  -0.1860  -0.0000
   2 Sc  :4f2-   0.0000   0.5882   0.0000
   3 Sc  :4f2-  -0.0000   0.1489   0.0000
   5 F   :3d1-  -0.5862   0.5440   0.0002
   6 F   :3d1-   0.3614  -0.4530  -0.0003
   7 F   :4f2-   0.0020  -0.0060   0.0395
   9 F   :3d1+   0.6952   0.5440   0.0029
  10 F   :3d1+  -0.4287  -0.4530  -0.0031
  11 F   :4f2-  -0.0024  -0.0060   0.4791
  13 F   :3d2-  -0.1090   0.5440  -0.0031
  14 F   :3d2-   0.0672  -0.4530   0.0033
  15 F   :4f2-   0.0004  -0.0060  -0.5186

 "NEWORB " orbitals punched.


  Total CPU  time used in SIRIUS :  19.02 seconds
  Total wall time used in SIRIUS :  19.02 seconds

 
     Date and time (Linux)  : Wed Jun  5 14:30:51 2019
     Host name              : s74p23.deic.sdu.dk                      


                     .---------------------------------------.
                     | End of Wave Function Section (SIRIUS) |
                     `---------------------------------------'

  Total CPU  time used in DALTON:  19.96 seconds
  Total wall time used in DALTON:  20.06 seconds

 
     Date and time (Linux)  : Wed Jun  5 14:30:51 2019
     Host name              : s74p23.deic.sdu.dk                      
