

     ************************************************************************
     *************** Dalton - An Electronic Structure Program ***************
     ************************************************************************

    This is output from DALTON release Dalton2019.alpha (2019)
         ( Web site: http://daltonprogram.org )

   ----------------------------------------------------------------------------

    NOTE:
     
    Dalton is an experimental code for the evaluation of molecular
    properties using (MC)SCF, DFT, CI, and CC wave functions.
    The authors accept no responsibility for the performance of
    the code or for the correctness of the results.
     
    The code (in whole or part) is provided under a licence and
    is not to be reproduced for further distribution without
    the written permission of the authors or their representatives.
     
    See the home page "http://daltonprogram.org" for further information.
     
    If results obtained with this code are published,
    the appropriate citations would be both of:
     
       K. Aidas, C. Angeli, K. L. Bak, V. Bakken, R. Bast,
       L. Boman, O. Christiansen, R. Cimiraglia, S. Coriani,
       P. Dahle, E. K. Dalskov, U. Ekstroem,
       T. Enevoldsen, J. J. Eriksen, P. Ettenhuber, B. Fernandez,
       L. Ferrighi, H. Fliegl, L. Frediani, K. Hald, A. Halkier,
       C. Haettig, H. Heiberg, T. Helgaker, A. C. Hennum,
       H. Hettema, E. Hjertenaes, S. Hoest, I.-M. Hoeyvik,
       M. F. Iozzi, B. Jansik, H. J. Aa. Jensen, D. Jonsson,
       P. Joergensen, J. Kauczor, S. Kirpekar,
       T. Kjaergaard, W. Klopper, S. Knecht, R. Kobayashi, H. Koch,
       J. Kongsted, A. Krapp, K. Kristensen, A. Ligabue,
       O. B. Lutnaes, J. I. Melo, K. V. Mikkelsen, R. H. Myhre,
       C. Neiss, C. B. Nielsen, P. Norman, J. Olsen,
       J. M. H. Olsen, A. Osted, M. J. Packer, F. Pawlowski,
       T. B. Pedersen, P. F. Provasi, S. Reine, Z. Rinkevicius,
       T. A. Ruden, K. Ruud, V. Rybkin, P. Salek, C. C. M. Samson,
       A. Sanchez de Meras, T. Saue, S. P. A. Sauer,
       B. Schimmelpfennig, K. Sneskov, A. H. Steindal,
       K. O. Sylvester-Hvid, P. R. Taylor, A. M. Teale,
       E. I. Tellgren, D. P. Tew, A. J. Thorvaldsen, L. Thoegersen,
       O. Vahtras, M. A. Watson, D. J. D. Wilson, M. Ziolkowski
       and H. Agren,
       "The Dalton quantum chemistry program system",
       WIREs Comput. Mol. Sci. 2014, 4:269–284 (doi: 10.1002/wcms.1172)
     
    and
     
       Dalton, a molecular electronic structure program,
       Release Dalton2019.alpha (2019), see http://daltonprogram.org
   ----------------------------------------------------------------------------

    Authors in alphabetical order (major contribution(s) in parenthesis):

  Kestutis Aidas,           Vilnius University,           Lithuania   (QM/MM)
  Celestino Angeli,         University of Ferrara,        Italy       (NEVPT2)
  Keld L. Bak,              UNI-C,                        Denmark     (AOSOPPA, non-adiabatic coupling, magnetic properties)
  Vebjoern Bakken,          University of Oslo,           Norway      (DALTON; geometry optimizer, symmetry detection)
  Radovan Bast,             UiT The Arctic U. of Norway,  Norway      (DALTON installation and execution frameworks)
  Pablo Baudin,             University of Valencia,       Spain       (Cholesky excitation energies)
  Linus Boman,              NTNU,                         Norway      (Cholesky decomposition and subsystems)
  Ove Christiansen,         Aarhus University,            Denmark     (CC module)
  Renzo Cimiraglia,         University of Ferrara,        Italy       (NEVPT2)
  Sonia Coriani,            Technical Univ. of Denmark,   Denmark     (CC module, MCD in RESPONS)
  Janusz Cukras,            University of Trieste,        Italy       (MChD in RESPONS)
  Paal Dahle,               University of Oslo,           Norway      (Parallelization)
  Erik K. Dalskov,          UNI-C,                        Denmark     (SOPPA)
  Thomas Enevoldsen,        Univ. of Southern Denmark,    Denmark     (SOPPA)
  Janus J. Eriksen,         Aarhus University,            Denmark     (Polarizable embedding model, TDA)
  Rasmus Faber,             University of Copenhagen,     Denmark     (Vib.avg. NMR with SOPPA, parallel AO-SOPPA)
  Tobias Fahleson,          KTH Stockholm,                Sweden      (Damped cubic response)
  Berta Fernandez,          U. of Santiago de Compostela, Spain       (doublet spin, ESR in RESPONS)
  Lara Ferrighi,            Aarhus University,            Denmark     (PCM Cubic response)
  Heike Fliegl,             University of Oslo,           Norway      (CCSD(R12))
  Luca Frediani,            UiT The Arctic U. of Norway,  Norway      (PCM)
  Bin Gao,                  UiT The Arctic U. of Norway,  Norway      (Gen1Int library)
  Christof Haettig,         Ruhr-University Bochum,       Germany     (CC module)
  Kasper Hald,              Aarhus University,            Denmark     (CC module)
  Asger Halkier,            Aarhus University,            Denmark     (CC module)
  Frederik Beyer Hansen,    University of Copenhagen,     Denmark     (Parallel AO-SOPPA)
  Erik D. Hedegaard,        Univ. of Southern Denmark,    Denmark     (Polarizable embedding model, QM/MM)
  Hanne Heiberg,            University of Oslo,           Norway      (geometry analysis, selected one-electron integrals)
  Trygve Helgaker,          University of Oslo,           Norway      (DALTON; ABACUS, ERI, DFT modules, London, and much more)
  Alf Christian Hennum,     University of Oslo,           Norway      (Parity violation)
  Hinne Hettema,            University of Auckland,       New Zealand (quadratic response in RESPONS; SIRIUS supersymmetry)
  Eirik Hjertenaes,         NTNU,                         Norway      (Cholesky decomposition)
  Pi A. B. Haase,           University of Copenhagen,     Denmark     (Triplet AO-SOPPA)
  Maria Francesca Iozzi,    University of Oslo,           Norway      (RPA)
  Christoph Jacob           TU Braunschweig               Germany     (Frozen density embedding model)
  Brano Jansik              Technical Univ. of Ostrava    Czech Rep.  (DFT cubic response)
  Hans Joergen Aa. Jensen,  Univ. of Southern Denmark,    Denmark     (DALTON; SIRIUS, RESPONS, ABACUS modules, London, and much more)
  Dan Jonsson,              UiT The Arctic U. of Norway,  Norway      (cubic response in RESPONS module)
  Poul Joergensen,          Aarhus University,            Denmark     (RESPONS, ABACUS, and CC modules)
  Maciej Kaminski,          University of Warsaw,         Poland      (CPPh in RESPONS)
  Joanna Kauczor,           Linkoeping University,        Sweden      (Complex polarization propagator (CPP) module)
  Sheela Kirpekar,          Univ. of Southern Denmark,    Denmark     (Mass-velocity & Darwin integrals)
  Wim Klopper,              KIT Karlsruhe,                Germany     (R12 code in CC, SIRIUS, and ABACUS modules)
  Stefan Knecht,            ETH Zurich,                   Switzerland (Parallel CI and MCSCF)
  Rika Kobayashi,           Australian National Univ.,    Australia   (DIIS in CC, London in MCSCF)
  Henrik Koch,              NTNU,                         Norway      (CC module, Cholesky decomposition)
  Jacob Kongsted,           Univ. of Southern Denmark,    Denmark     (Polarizable embedding model, QM/MM)
  Andrea Ligabue,           University of Modena,         Italy       (CTOCD, AOSOPPA)
  Nanna H. List             Univ. of Southern Denmark,    Denmark     (Polarizable embedding model)
  Ola B. Lutnaes,           University of Oslo,           Norway      (DFT Hessian)
  Juan I. Melo,             University of Buenos Aires,   Argentina   (LRESC, Relativistic Effects on NMR Shieldings)
  Kurt V. Mikkelsen,        University of Copenhagen,     Denmark     (MC-SCRF and QM/MM)
  Rolf H. Myhre,            NTNU,                         Norway      (Subsystems and CC3)
  Christian Neiss,          Univ. Erlangen-Nuernberg,     Germany     (CCSD(R12))
  Christian B. Nielsen,     University of Copenhagen,     Denmark     (QM/MM)
  Patrick Norman,           KTH Stockholm,                Sweden      (Cubic response and complex frequency response in RESPONS)
  Jeppe Olsen,              Aarhus University,            Denmark     (SIRIUS CI/density modules)
  Jogvan Magnus H. Olsen,   Univ. of Southern Denmark,    Denmark     (Polarizable embedding model, QM/MM)
  Anders Osted,             Copenhagen University,        Denmark     (QM/MM)
  Martin J. Packer,         University of Sheffield,      UK          (SOPPA)
  Filip Pawlowski,          Kazimierz Wielki University,  Poland      (CC3)
  Morten N. Pedersen,       Univ. of Southern Denmark,    Denmark     (Polarizable embedding model)
  Thomas B. Pedersen,       University of Oslo,           Norway      (Cholesky decomposition)
  Patricio F. Provasi,      University of Northeastern,   Argentina   (Analysis of coupling constants in localized orbitals)
  Zilvinas Rinkevicius,     KTH Stockholm,                Sweden      (open-shell DFT, ESR)
  Elias Rudberg,            KTH Stockholm,                Sweden      (DFT grid and basis info)
  Torgeir A. Ruden,         University of Oslo,           Norway      (Numerical derivatives in ABACUS)
  Kenneth Ruud,             UiT The Arctic U. of Norway,  Norway      (DALTON; ABACUS magnetic properties and much more)
  Pawel Salek,              KTH Stockholm,                Sweden      (DALTON; DFT code)
  Claire C. M. Samson       University of Karlsruhe       Germany     (Boys localization, r12 integrals in ERI)
  Alfredo Sanchez de Meras, University of Valencia,       Spain       (CC module, Cholesky decomposition)
  Trond Saue,               Paul Sabatier University,     France      (direct Fock matrix construction)
  Stephan P. A. Sauer,      University of Copenhagen,     Denmark     (SOPPA(CCSD), SOPPA prop., AOSOPPA, vibrational g-factors)
  Andre S. P. Gomes,        CNRS/Universite de Lille,     France      (Frozen density embedding model)
  Bernd Schimmelpfennig,    Forschungszentrum Karlsruhe,  Germany     (AMFI module)
  Kristian Sneskov,         Aarhus University,            Denmark     (Polarizable embedding model, QM/MM)
  Arnfinn H. Steindal,      UiT The Arctic U. of Norway,  Norway      (parallel QM/MM, Polarizable embedding model)
  Casper Steinmann,         Univ. of Southern Denmark,    Denmark     (QFIT, Polarizable embedding model)
  K. O. Sylvester-Hvid,     University of Copenhagen,     Denmark     (MC-SCRF)
  Peter R. Taylor,          VLSCI/Univ. of Melbourne,     Australia   (Symmetry handling ABACUS, integral transformation)
  Andrew M. Teale,          University of Nottingham,     England     (DFT-AC, DFT-D)
  David P. Tew,             University of Bristol,        England     (CCSD(R12))
  Olav Vahtras,             KTH Stockholm,                Sweden      (triplet response, spin-orbit, ESR, TDDFT, open-shell DFT)
  Lucas Visscher,           Vrije Universiteit Amsterdam, Netherlands (Frozen density embedding model)
  David J. Wilson,          La Trobe University,          Australia   (DFT Hessian and DFT magnetizabilities)
  Hans Agren,               KTH Stockholm,                Sweden      (SIRIUS module, RESPONS, MC-SCRF solvation model)
 --------------------------------------------------------------------------------

     Date and time (Linux)  : Tue Jun  4 11:23:04 2019
     Host name              : s73p20.deic.sdu.dk                      

 * Work memory size             :   320000000 =  2.384 gigabytes.

 * Directories for basis set searches:
   1) /work/sdujk/kjellgren/test
   2) /gpfs/gss1/work/sdujk/kjellgren/programs/dalton/srdft_dalton_intel/basis


Compilation information
-----------------------

 Who compiled             | kjellgren
 Host                     | fe1.deic.sdu.dk
 System                   | Linux-3.10.0-327.36.3.el7.x86_64
 CMake generator          | Unix Makefiles
 Processor                | x86_64
 64-bit integers          | OFF
 MPI                      | ON
 Fortran compiler         | /opt/sys/apps/intel/2018.05/impi_latest/intel64/bi
                          | n/mpiifort
 Fortran compiler version | unknown
 C compiler               | /opt/sys/apps/intel/2018.05/impi_latest/intel64/bi
                          | n/mpiicc
 C compiler version       | unknown
 C++ compiler             | /opt/sys/apps/intel/2018.05/impi_latest/intel64/bi
                          | n/mpiicpc
 C++ compiler version     | unknown
 Static linking           | OFF
 Last Git revision        | 4bbd0b40128eb84fef50606236f8fd13f96f8b30
 Git branch               | hjaaj-srdft
 Configuration time       | 2019-05-26 09:37:52.234580

 * MPI parallel run using 24 processes.


   Content of the .dal input file
 ----------------------------------

**DALTON INPUT
.RUN WAVE FUNCTIONS
*MOLBAS
.PRINT
 10
**WAVE FUNCTIONS
.HF
*ORBITAL INPUT
.PUNCHOUTORBITALS
**END OF DALTON INPUT


   Content of the .mol file
 ----------------------------

BASIS
cc-pVDZ-DK_ogc
 Title
 Generated by the Dalton Input File Plugin for Avogadro
Atomtypes=4 Charge=-1
Charge=26.0 Atoms=1
Fe         0.00092        0.00000        0.37789
Charge=7.0 Atoms=1
N          0.00062        0.00000        3.51545
Charge=6.0 Atoms=3
C          2.99855        0.00000       -1.12906
C         -1.49900       -2.59520       -1.12928
C         -1.49900        2.59520       -1.12928
Charge=8.0 Atoms=4
O         -2.50142       -4.32842       -2.08667
O         -2.50142        4.32842       -2.08667
O         -0.00024        0.00000        5.77447
O          5.00100        0.00000       -2.08599


       *******************************************************************
       *********** Output from DALTON general input processing ***********
       *******************************************************************

 --------------------------------------------------------------------------------
   Overall default print level:    0
   Print level for DALTON.STAT:    1

    Parallel calculation using MPI
    AO-direct calculation (in sections where implemented)
    HERMIT 1- and 2-electron integral sections will be executed
    "Old" integral transformation used (limited to max 255 basis functions)
    Wave function sections will be executed (SIRIUS module)
 --------------------------------------------------------------------------------

@ * Nuclear model: Point charge.


 Changes of defaults for *MOLBAS
 -------------------------------

 Print level in molecule setup (READIN):   10



   ****************************************************************************
   *************** Output of molecule and basis set information ***************
   ****************************************************************************


 Basis set 1 is  "cc-pVDZ-DK_ogc" from the basis set library.

    The two title cards from your ".mol" input:
    ------------------------------------------------------------------------
 1:  Title                                                                  
 2:  Generated by the Dalton Input File Plugin for Avogadro                 
    ------------------------------------------------------------------------

  Calculation of transformation matrices for spherical GTOs.


                            **************************
                            *** Output from SPHCOM ***
                            **************************

      LVAL      2
      NLM       5
      NXYZ      6
      MINTEG    2


                              +---------------------+
                              ! Legendre polynomial !
                              +---------------------+


               Column   1     Column   2     Column   3
       1      -0.50000000     0.00000000     1.50000000
    ==== End of matrix output ====


                            +-------------------------+
                            ! Cosine and sine factors !
                            +-------------------------+


               Column   1     Column   2     Column   3
       1       1.00000000     0.00000000     0.00000000
       2       1.00000000     1.00000000     0.00000000
       3       1.00000000     2.00000000    -1.00000000
    ==== End of matrix output ====


                  +----------------------------------------------+
                  ! Cartesian to spherical transformation matrix !
                  +----------------------------------------------+

                              Moment order: 2

               Column   1     Column   2     Column   3     Column   4     Column   5
       1       0.00000000     0.00000000    -0.28867513     0.00000000     0.50000000
       2       1.00000000     0.00000000     0.00000000     0.00000000     0.00000000
       3       0.00000000     0.00000000     0.00000000     1.00000000     0.00000000
       4       0.00000000     0.00000000    -0.28867513     0.00000000    -0.50000000
       5       0.00000000     1.00000000     0.00000000     0.00000000     0.00000000
       6       0.00000000     0.00000000     0.57735027     0.00000000     0.00000000
    ==== End of matrix output ====


                            **************************
                            *** Output from SPHCOM ***
                            **************************

      LVAL      3
      NLM       7
      NXYZ     10
      MINTEG    2


                              +---------------------+
                              ! Legendre polynomial !
                              +---------------------+


               Column   1     Column   2     Column   3     Column   4
       1       0.00000000    -1.50000000     0.00000000     2.50000000
    ==== End of matrix output ====


                            +-------------------------+
                            ! Cosine and sine factors !
                            +-------------------------+


               Column   1     Column   2     Column   3     Column   4
       1       1.00000000     0.00000000     0.00000000     0.00000000
       2       1.00000000     1.00000000     0.00000000     0.00000000
       3       1.00000000     2.00000000    -1.00000000     0.00000000
       4       1.00000000     3.00000000    -3.00000000    -1.00000000
    ==== End of matrix output ====


                  +----------------------------------------------+
                  ! Cartesian to spherical transformation matrix !
                  +----------------------------------------------+

                              Moment order: 3

               Column   1     Column   2     Column   3     Column   4     Column   5
       1       0.00000000     0.00000000     0.00000000     0.00000000    -0.15811388
       2       0.61237244     0.00000000    -0.15811388     0.00000000     0.00000000
       3       0.00000000     0.00000000     0.00000000    -0.38729833     0.00000000
       4       0.00000000     0.00000000     0.00000000     0.00000000    -0.15811388
       5       0.00000000     1.00000000     0.00000000     0.00000000     0.00000000
       6       0.00000000     0.00000000     0.00000000     0.00000000     0.63245553
       7      -0.20412415     0.00000000    -0.15811388     0.00000000     0.00000000
       8       0.00000000     0.00000000     0.00000000    -0.38729833     0.00000000
       9       0.00000000     0.00000000     0.63245553     0.00000000     0.00000000
      10       0.00000000     0.00000000     0.00000000     0.25819889     0.00000000

               Column   6     Column   7
       1       0.00000000     0.20412415
       3       0.50000000     0.00000000
       4       0.00000000    -0.61237244
       8      -0.50000000     0.00000000
    ==== End of matrix output ====


                            **************************
                            *** Output from SPHCOM ***
                            **************************

      LVAL      4
      NLM       9
      NXYZ     15
      MINTEG    2


                              +---------------------+
                              ! Legendre polynomial !
                              +---------------------+


               Column   1     Column   2     Column   3     Column   4     Column   5
       1       0.37500000     0.00000000    -3.75000000     0.00000000     4.37500000
    ==== End of matrix output ====


                            +-------------------------+
                            ! Cosine and sine factors !
                            +-------------------------+


               Column   1     Column   2     Column   3     Column   4     Column   5
       1       1.00000000     0.00000000     0.00000000     0.00000000     0.00000000
       2       1.00000000     1.00000000     0.00000000     0.00000000     0.00000000
       3       1.00000000     2.00000000    -1.00000000     0.00000000     0.00000000
       4       1.00000000     3.00000000    -3.00000000    -1.00000000     0.00000000
       5       1.00000000     4.00000000    -6.00000000    -4.00000000     1.00000000
    ==== End of matrix output ====


                  +----------------------------------------------+
                  ! Cartesian to spherical transformation matrix !
                  +----------------------------------------------+

                              Moment order: 4

               Column   1     Column   2     Column   3     Column   4     Column   5
       1       0.00000000     0.00000000     0.00000000     0.00000000     0.03659625
       2       0.28867513     0.00000000    -0.10910895     0.00000000     0.00000000
       4       0.00000000     0.00000000     0.00000000     0.00000000     0.07319251
       5       0.00000000     0.61237244     0.00000000    -0.23145502     0.00000000
       6       0.00000000     0.00000000     0.00000000     0.00000000    -0.29277002
       7      -0.28867513     0.00000000    -0.10910895     0.00000000     0.00000000
       9       0.00000000     0.00000000     0.65465367     0.00000000     0.00000000
      11       0.00000000     0.00000000     0.00000000     0.00000000     0.03659625
      12       0.00000000    -0.20412415     0.00000000    -0.23145502     0.00000000
      13       0.00000000     0.00000000     0.00000000     0.00000000    -0.29277002
      14       0.00000000     0.00000000     0.00000000     0.30860670     0.00000000
      15       0.00000000     0.00000000     0.00000000     0.00000000     0.09759001

               Column   6     Column   7     Column   8     Column   9
       1       0.00000000    -0.05455447     0.00000000     0.07216878
       3      -0.23145502     0.00000000     0.20412415     0.00000000
       4       0.00000000     0.00000000     0.00000000    -0.43301270
       6       0.00000000     0.32732684     0.00000000     0.00000000
       8      -0.23145502     0.00000000    -0.61237244     0.00000000
      10       0.30860670     0.00000000     0.00000000     0.00000000
      11       0.00000000     0.05455447     0.00000000     0.07216878
      13       0.00000000    -0.32732684     0.00000000     0.00000000
    ==== End of matrix output ====


                            **************************
                            *** Output from SPHCOM ***
                            **************************

      LVAL      5
      NLM      11
      NXYZ     21
      MINTEG    2


                              +---------------------+
                              ! Legendre polynomial !
                              +---------------------+


               Column   1     Column   2     Column   3     Column   4     Column   5
       1       0.00000000     1.87500000     0.00000000    -8.75000000     0.00000000

               Column   6
       1       7.87500000
    ==== End of matrix output ====


                            +-------------------------+
                            ! Cosine and sine factors !
                            +-------------------------+


               Column   1     Column   2     Column   3     Column   4     Column   5
       1       1.00000000     0.00000000     0.00000000     0.00000000     0.00000000
       2       1.00000000     1.00000000     0.00000000     0.00000000     0.00000000
       3       1.00000000     2.00000000    -1.00000000     0.00000000     0.00000000
       4       1.00000000     3.00000000    -3.00000000    -1.00000000     0.00000000
       5       1.00000000     4.00000000    -6.00000000    -4.00000000     1.00000000
       6       1.00000000     5.00000000   -10.00000000   -10.00000000     5.00000000

               Column   6
       6       1.00000000
    ==== End of matrix output ====


                  +----------------------------------------------+
                  ! Cartesian to spherical transformation matrix !
                  +----------------------------------------------+

                              Moment order: 5

               Column   1     Column   2     Column   3     Column   4     Column   5
       2       0.11410887     0.00000000    -0.05103104     0.00000000     0.01574852
       5       0.00000000     0.28867513     0.00000000    -0.16666667     0.00000000
       7      -0.22821773     0.00000000    -0.03402069     0.00000000     0.03149704
       9       0.00000000     0.00000000     0.40824829     0.00000000    -0.18898224
      12       0.00000000    -0.28867513     0.00000000    -0.16666667     0.00000000
      14       0.00000000     0.00000000     0.00000000     0.33333333     0.00000000
      16       0.02282177     0.00000000     0.01701035     0.00000000     0.01574852
      18       0.00000000     0.00000000    -0.13608276     0.00000000    -0.18898224
      20       0.00000000     0.00000000     0.00000000     0.00000000     0.12598816

               Column   6     Column   7     Column   8     Column   9     Column  10
       1       0.00000000     0.01574852     0.00000000    -0.01701035     0.00000000
       3       0.06099375     0.00000000    -0.08333333     0.00000000     0.07216878
       4       0.00000000     0.03149704     0.00000000     0.03402069     0.00000000
       6       0.00000000    -0.18898224     0.00000000     0.13608276     0.00000000
       8       0.12198751     0.00000000     0.00000000     0.00000000    -0.43301270
      10      -0.16265001     0.00000000     0.16666667     0.00000000     0.00000000
      11       0.00000000     0.01574852     0.00000000     0.05103104     0.00000000
      13       0.00000000    -0.18898224     0.00000000    -0.40824829     0.00000000
      15       0.00000000     0.12598816     0.00000000     0.00000000     0.00000000
      17       0.06099375     0.00000000     0.08333333     0.00000000     0.07216878
      19      -0.16265001     0.00000000    -0.16666667     0.00000000     0.00000000
      21       0.03253000     0.00000000     0.00000000     0.00000000     0.00000000

               Column  11
       1       0.02282177
       4      -0.22821773
      11       0.11410887
    ==== End of matrix output ====


                            **************************
                            *** Output from SPHCOM ***
                            **************************

      LVAL      6
      NLM      13
      NXYZ     28
      MINTEG    2


                              +---------------------+
                              ! Legendre polynomial !
                              +---------------------+


               Column   1     Column   2     Column   3     Column   4     Column   5
       1      -0.31250000     0.00000000     6.56250000     0.00000000   -19.68750000

               Column   6     Column   7
       1       0.00000000    14.43750000
    ==== End of matrix output ====


                            +-------------------------+
                            ! Cosine and sine factors !
                            +-------------------------+


               Column   1     Column   2     Column   3     Column   4     Column   5
       1       1.00000000     0.00000000     0.00000000     0.00000000     0.00000000
       2       1.00000000     1.00000000     0.00000000     0.00000000     0.00000000
       3       1.00000000     2.00000000    -1.00000000     0.00000000     0.00000000
       4       1.00000000     3.00000000    -3.00000000    -1.00000000     0.00000000
       5       1.00000000     4.00000000    -6.00000000    -4.00000000     1.00000000
       6       1.00000000     5.00000000   -10.00000000   -10.00000000     5.00000000
       7       1.00000000     6.00000000   -15.00000000   -20.00000000    15.00000000

               Column   6     Column   7
       6       1.00000000     0.00000000
       7       6.00000000    -1.00000000
    ==== End of matrix output ====


                  +----------------------------------------------+
                  ! Cartesian to spherical transformation matrix !
                  +----------------------------------------------+

                              Moment order: 6

               Column   1     Column   2     Column   3     Column   4     Column   5
       2       0.03952847     0.00000000    -0.01946247     0.00000000     0.00888336
       5       0.00000000     0.11410887     0.00000000    -0.07995027     0.00000000
       7      -0.13176157     0.00000000     0.00000000     0.00000000     0.01776673
       9       0.00000000     0.00000000     0.19462474     0.00000000    -0.14213381
      12       0.00000000    -0.22821773     0.00000000    -0.05330018     0.00000000
      14       0.00000000     0.00000000     0.00000000     0.21320072     0.00000000
      16       0.03952847     0.00000000     0.01946247     0.00000000     0.00888336
      18       0.00000000     0.00000000    -0.19462474     0.00000000    -0.14213381
      20       0.00000000     0.00000000     0.00000000     0.00000000     0.14213381
      23       0.00000000     0.02282177     0.00000000     0.02665009     0.00000000
      25       0.00000000     0.00000000     0.00000000    -0.07106691     0.00000000

               Column   6     Column   7     Column   8     Column   9     Column  10
       1       0.00000000    -0.00306505     0.00000000     0.00444168     0.00000000
       3       0.00000000     0.00000000     0.02809166     0.00000000    -0.02665009
       4       0.00000000    -0.00919515     0.00000000     0.00444168     0.00000000
       5       0.02809166     0.00000000     0.00000000     0.00000000     0.00000000
       6       0.00000000     0.05517093     0.00000000    -0.07106691     0.00000000
       8       0.00000000     0.00000000     0.05618332     0.00000000     0.05330018
      10       0.00000000     0.00000000    -0.11236664     0.00000000     0.07106691
      11       0.00000000    -0.00919515     0.00000000    -0.00444168     0.00000000
      12       0.05618332     0.00000000     0.00000000     0.00000000     0.00000000
      13       0.00000000     0.11034185     0.00000000     0.00000000     0.00000000
      14      -0.11236664     0.00000000     0.00000000     0.00000000     0.00000000
      15       0.00000000    -0.07356124     0.00000000     0.07106691     0.00000000
      17       0.00000000     0.00000000     0.02809166     0.00000000     0.07995027
      19       0.00000000     0.00000000    -0.11236664     0.00000000    -0.21320072
      21       0.00000000     0.00000000     0.04494666     0.00000000     0.00000000
      22       0.00000000    -0.00306505     0.00000000    -0.00444168     0.00000000
      23       0.02809166     0.00000000     0.00000000     0.00000000     0.00000000
      24       0.00000000     0.05517093     0.00000000     0.07106691     0.00000000
      25      -0.11236664     0.00000000     0.00000000     0.00000000     0.00000000
      26       0.00000000    -0.07356124     0.00000000    -0.07106691     0.00000000
      27       0.04494666     0.00000000     0.00000000     0.00000000     0.00000000
      28       0.00000000     0.00980816     0.00000000     0.00000000     0.00000000

               Column  11     Column  12     Column  13
       1      -0.00486562     0.00000000     0.00658808
       3       0.00000000     0.02282177     0.00000000
       4       0.02432809     0.00000000    -0.09882118
       6       0.04865618     0.00000000     0.00000000
       8       0.00000000    -0.22821773     0.00000000
      11       0.02432809     0.00000000     0.09882118
      13      -0.29193710     0.00000000     0.00000000
      17       0.00000000     0.11410887     0.00000000
      22      -0.00486562     0.00000000    -0.00658808
      24       0.04865618     0.00000000     0.00000000
    ==== End of matrix output ====


                            **************************
                            *** Output from SPHCOM ***
                            **************************

      LVAL      7
      NLM      15
      NXYZ     36
      MINTEG    2


                              +---------------------+
                              ! Legendre polynomial !
                              +---------------------+


               Column   1     Column   2     Column   3     Column   4     Column   5
       1       0.00000000    -2.18750000     0.00000000    19.68750000     0.00000000

               Column   6     Column   7     Column   8
       1     -43.31250000     0.00000000    26.81250000
    ==== End of matrix output ====


                            +-------------------------+
                            ! Cosine and sine factors !
                            +-------------------------+


               Column   1     Column   2     Column   3     Column   4     Column   5
       1       1.00000000     0.00000000     0.00000000     0.00000000     0.00000000
       2       1.00000000     1.00000000     0.00000000     0.00000000     0.00000000
       3       1.00000000     2.00000000    -1.00000000     0.00000000     0.00000000
       4       1.00000000     3.00000000    -3.00000000    -1.00000000     0.00000000
       5       1.00000000     4.00000000    -6.00000000    -4.00000000     1.00000000
       6       1.00000000     5.00000000   -10.00000000   -10.00000000     5.00000000
       7       1.00000000     6.00000000   -15.00000000   -20.00000000    15.00000000
       8       1.00000000     7.00000000   -21.00000000   -35.00000000    35.00000000

               Column   6     Column   7     Column   8
       6       1.00000000     0.00000000     0.00000000
       7       6.00000000    -1.00000000     0.00000000
       8      21.00000000    -7.00000000    -1.00000000
    ==== End of matrix output ====


                  +----------------------------------------------+
                  ! Cartesian to spherical transformation matrix !
                  +----------------------------------------------+

                              Moment order: 7

               Column   1     Column   2     Column   3     Column   4     Column   5
       2       0.01232517     0.00000000    -0.00646014     0.00000000     0.00350605
       5       0.00000000     0.03952847     0.00000000    -0.03100868     0.00000000
       7      -0.06162583     0.00000000     0.00646014     0.00000000     0.00584342
       9       0.00000000     0.00000000     0.07752171     0.00000000    -0.07012102
      12       0.00000000    -0.13176157     0.00000000     0.00000000     0.00000000
      14       0.00000000     0.00000000     0.00000000     0.10336228     0.00000000
      16       0.03697550     0.00000000     0.01162826     0.00000000     0.00116868
      18       0.00000000     0.00000000    -0.15504342     0.00000000    -0.04674735
      20       0.00000000     0.00000000     0.00000000     0.00000000     0.09349470
      23       0.00000000     0.03952847     0.00000000     0.03100868     0.00000000
      25       0.00000000     0.00000000     0.00000000    -0.10336228     0.00000000
      29      -0.00176074     0.00000000    -0.00129203     0.00000000    -0.00116868
      31       0.00000000     0.00000000     0.01550434     0.00000000     0.02337367
      33       0.00000000     0.00000000     0.00000000     0.00000000    -0.03116490

               Column   6     Column   7     Column   8     Column   9     Column  10
       1       0.00000000     0.00000000     0.00000000    -0.00112457     0.00000000
       2       0.00000000    -0.00112457     0.00000000     0.00000000     0.00000000
       3       0.00000000     0.00000000    -0.00595065     0.00000000     0.00826384
       4       0.00000000     0.00000000     0.00000000    -0.00337370     0.00000000
       5       0.01652768     0.00000000     0.00000000     0.00000000     0.00000000
       6       0.00000000     0.00000000     0.00000000     0.02698959     0.00000000
       7       0.00000000    -0.00337370     0.00000000     0.00000000     0.00000000
       8       0.00000000     0.00000000    -0.01785194     0.00000000     0.00826384
       9       0.00000000     0.02698959     0.00000000     0.00000000     0.00000000
      10       0.00000000     0.00000000     0.03570388     0.00000000    -0.04407382
      11       0.00000000     0.00000000     0.00000000    -0.00337370     0.00000000
      12       0.03305537     0.00000000     0.00000000     0.00000000     0.00000000
      13       0.00000000     0.00000000     0.00000000     0.05397919     0.00000000
      14      -0.08814765     0.00000000     0.00000000     0.00000000     0.00000000
      15       0.00000000     0.00000000     0.00000000    -0.05397919     0.00000000
      16       0.00000000    -0.00337370     0.00000000     0.00000000     0.00000000
      17       0.00000000     0.00000000    -0.01785194     0.00000000    -0.00826384
      18       0.00000000     0.05397919     0.00000000     0.00000000     0.00000000
      19       0.00000000     0.00000000     0.07140776     0.00000000     0.00000000
      20       0.00000000    -0.05397919     0.00000000     0.00000000     0.00000000
      21       0.00000000     0.00000000    -0.02856310     0.00000000     0.02644429
      22       0.00000000     0.00000000     0.00000000    -0.00112457     0.00000000
      23       0.01652768     0.00000000     0.00000000     0.00000000     0.00000000
      24       0.00000000     0.00000000     0.00000000     0.02698959     0.00000000
      25      -0.08814765     0.00000000     0.00000000     0.00000000     0.00000000
      26       0.00000000     0.00000000     0.00000000    -0.05397919     0.00000000
      27       0.05288859     0.00000000     0.00000000     0.00000000     0.00000000
      28       0.00000000     0.00000000     0.00000000     0.01439445     0.00000000
      29       0.00000000    -0.00112457     0.00000000     0.00000000     0.00000000
      30       0.00000000     0.00000000    -0.00595065     0.00000000    -0.00826384
      31       0.00000000     0.02698959     0.00000000     0.00000000     0.00000000
      32       0.00000000     0.00000000     0.03570388     0.00000000     0.04407382
      33       0.00000000    -0.05397919     0.00000000     0.00000000     0.00000000
      34       0.00000000     0.00000000    -0.02856310     0.00000000    -0.02644429
      35       0.00000000     0.01439445     0.00000000     0.00000000     0.00000000
      36       0.00000000     0.00000000     0.00272030     0.00000000     0.00000000

               Column  11     Column  12     Column  13     Column  14     Column  15
       1       0.00116868     0.00000000    -0.00129203     0.00000000     0.00176074
       3       0.00000000    -0.00775217     0.00000000     0.00658808     0.00000000
       4      -0.00116868     0.00000000     0.01162826     0.00000000    -0.03697550
       6      -0.02337367     0.00000000     0.01550434     0.00000000     0.00000000
       8       0.00000000     0.03876085     0.00000000    -0.09882118     0.00000000
      10       0.00000000     0.02584057     0.00000000     0.00000000     0.00000000
      11      -0.00584342     0.00000000     0.00646014     0.00000000     0.06162583
      13       0.04674735     0.00000000    -0.15504342     0.00000000     0.00000000
      15       0.03116490     0.00000000     0.00000000     0.00000000     0.00000000
      17       0.00000000     0.03876085     0.00000000     0.09882118     0.00000000
      19       0.00000000    -0.15504342     0.00000000     0.00000000     0.00000000
      22      -0.00350605     0.00000000    -0.00646014     0.00000000    -0.01232517
      24       0.07012102     0.00000000     0.07752171     0.00000000     0.00000000
      26      -0.09349470     0.00000000     0.00000000     0.00000000     0.00000000
      30       0.00000000    -0.00775217     0.00000000    -0.00658808     0.00000000
      32       0.00000000     0.02584057     0.00000000     0.00000000     0.00000000
    ==== End of matrix output ====


                        Cartesian transformation matrices
                        ---------------------------------

  to spherical harmonics


  Coefficients for angular quantum number     0
  to GTOs with labels:
     1s  

               Column   1
       1       1.00000000
    ==== End of matrix output ====

  Coefficients for angular quantum number     1
  to GTOs with labels:
     2px  2py  2pz 

               Column   1     Column   2     Column   3
       1       1.00000000     0.00000000     0.00000000
       2       0.00000000     1.00000000     0.00000000
       3       0.00000000     0.00000000     1.00000000
    ==== End of matrix output ====

  Coefficients for angular quantum number     2
  to GTOs with labels:
     3d2- 3d1- 3d0  3d1+ 3d2+

               Column   1     Column   2     Column   3     Column   4     Column   5
       1       0.00000000     1.00000000     0.00000000     0.00000000     0.00000000
       2       0.00000000     0.00000000     0.00000000     0.00000000     1.00000000
       3      -0.28867513     0.00000000     0.00000000    -0.28867513     0.00000000
       4       0.00000000     0.00000000     1.00000000     0.00000000     0.00000000
       5       0.50000000     0.00000000     0.00000000    -0.50000000     0.00000000

               Column   6
       3       0.57735027
    ==== End of matrix output ====

  Coefficients for angular quantum number     3
  to GTOs with labels:
     4f3- 4f2- 4f1- 4f0  4f1+ 4f2+ 4f3+

               Column   1     Column   2     Column   3     Column   4     Column   5
       1       0.00000000     0.61237244     0.00000000     0.00000000     0.00000000
       2       0.00000000     0.00000000     0.00000000     0.00000000     1.00000000
       3       0.00000000    -0.15811388     0.00000000     0.00000000     0.00000000
       4       0.00000000     0.00000000    -0.38729833     0.00000000     0.00000000
       5      -0.15811388     0.00000000     0.00000000    -0.15811388     0.00000000
       6       0.00000000     0.00000000     0.50000000     0.00000000     0.00000000
       7       0.20412415     0.00000000     0.00000000    -0.61237244     0.00000000

               Column   6     Column   7     Column   8     Column   9     Column  10
       1       0.00000000    -0.20412415     0.00000000     0.00000000     0.00000000
       3       0.00000000    -0.15811388     0.00000000     0.63245553     0.00000000
       4       0.00000000     0.00000000    -0.38729833     0.00000000     0.25819889
       5       0.63245553     0.00000000     0.00000000     0.00000000     0.00000000
       6       0.00000000     0.00000000    -0.50000000     0.00000000     0.00000000
    ==== End of matrix output ====

  Coefficients for angular quantum number     4
  to GTOs with labels:
     5g4- 5g3- 5g2- 5g1- 5g0  5g1+ 5g2+ 5g3+ 5g4+

               Column   1     Column   2     Column   3     Column   4     Column   5
       1       0.00000000     0.28867513     0.00000000     0.00000000     0.00000000
       2       0.00000000     0.00000000     0.00000000     0.00000000     0.61237244
       3       0.00000000    -0.10910895     0.00000000     0.00000000     0.00000000
       4       0.00000000     0.00000000     0.00000000     0.00000000    -0.23145502
       5       0.03659625     0.00000000     0.00000000     0.07319251     0.00000000
       6       0.00000000     0.00000000    -0.23145502     0.00000000     0.00000000
       7      -0.05455447     0.00000000     0.00000000     0.00000000     0.00000000
       8       0.00000000     0.00000000     0.20412415     0.00000000     0.00000000
       9       0.07216878     0.00000000     0.00000000    -0.43301270     0.00000000

               Column   6     Column   7     Column   8     Column   9     Column  10
       1       0.00000000    -0.28867513     0.00000000     0.00000000     0.00000000
       3       0.00000000    -0.10910895     0.00000000     0.65465367     0.00000000
       5      -0.29277002     0.00000000     0.00000000     0.00000000     0.00000000
       6       0.00000000     0.00000000    -0.23145502     0.00000000     0.30860670
       7       0.32732684     0.00000000     0.00000000     0.00000000     0.00000000
       8       0.00000000     0.00000000    -0.61237244     0.00000000     0.00000000

               Column  11     Column  12     Column  13     Column  14     Column  15
       2       0.00000000    -0.20412415     0.00000000     0.00000000     0.00000000
       4       0.00000000    -0.23145502     0.00000000     0.30860670     0.00000000
       5       0.03659625     0.00000000    -0.29277002     0.00000000     0.09759001
       7       0.05455447     0.00000000    -0.32732684     0.00000000     0.00000000
       9       0.07216878     0.00000000     0.00000000     0.00000000     0.00000000
    ==== End of matrix output ====

  Coefficients for angular quantum number     5
  to GTOs with labels:
     6h5- 6h4- 6h3- 6h2- 6h1- 6h0  6h1+ 6h2+ 6h3+ 6h4+ 6h5+

               Column   1     Column   2     Column   3     Column   4     Column   5
       1       0.00000000     0.11410887     0.00000000     0.00000000     0.00000000
       2       0.00000000     0.00000000     0.00000000     0.00000000     0.28867513
       3       0.00000000    -0.05103104     0.00000000     0.00000000     0.00000000
       4       0.00000000     0.00000000     0.00000000     0.00000000    -0.16666667
       5       0.00000000     0.01574852     0.00000000     0.00000000     0.00000000
       6       0.00000000     0.00000000     0.06099375     0.00000000     0.00000000
       7       0.01574852     0.00000000     0.00000000     0.03149704     0.00000000
       8       0.00000000     0.00000000    -0.08333333     0.00000000     0.00000000
       9      -0.01701035     0.00000000     0.00000000     0.03402069     0.00000000
      10       0.00000000     0.00000000     0.07216878     0.00000000     0.00000000
      11       0.02282177     0.00000000     0.00000000    -0.22821773     0.00000000

               Column   6     Column   7     Column   8     Column   9     Column  10
       1       0.00000000    -0.22821773     0.00000000     0.00000000     0.00000000
       3       0.00000000    -0.03402069     0.00000000     0.40824829     0.00000000
       5       0.00000000     0.03149704     0.00000000    -0.18898224     0.00000000
       6       0.00000000     0.00000000     0.12198751     0.00000000    -0.16265001
       7      -0.18898224     0.00000000     0.00000000     0.00000000     0.00000000
       8       0.00000000     0.00000000     0.00000000     0.00000000     0.16666667
       9       0.13608276     0.00000000     0.00000000     0.00000000     0.00000000
      10       0.00000000     0.00000000    -0.43301270     0.00000000     0.00000000

               Column  11     Column  12     Column  13     Column  14     Column  15
       2       0.00000000    -0.28867513     0.00000000     0.00000000     0.00000000
       4       0.00000000    -0.16666667     0.00000000     0.33333333     0.00000000
       7       0.01574852     0.00000000    -0.18898224     0.00000000     0.12598816
       9       0.05103104     0.00000000    -0.40824829     0.00000000     0.00000000
      11       0.11410887     0.00000000     0.00000000     0.00000000     0.00000000

               Column  16     Column  17     Column  18     Column  19     Column  20
       1       0.02282177     0.00000000     0.00000000     0.00000000     0.00000000
       3       0.01701035     0.00000000    -0.13608276     0.00000000     0.00000000
       5       0.01574852     0.00000000    -0.18898224     0.00000000     0.12598816
       6       0.00000000     0.06099375     0.00000000    -0.16265001     0.00000000
       8       0.00000000     0.08333333     0.00000000    -0.16666667     0.00000000
      10       0.00000000     0.07216878     0.00000000     0.00000000     0.00000000

               Column  21
       6       0.03253000
    ==== End of matrix output ====

  Coefficients for angular quantum number     6
  to GTOs with labels:
     7i6- 7i5- 7i4- 7i3- 7i2- 7i1- 7i0  7i1+ 7i2+ 7i3+ 7i4+ 7i5+ 7i6+

               Column   1     Column   2     Column   3     Column   4     Column   5
       1       0.00000000     0.03952847     0.00000000     0.00000000     0.00000000
       2       0.00000000     0.00000000     0.00000000     0.00000000     0.11410887
       3       0.00000000    -0.01946247     0.00000000     0.00000000     0.00000000
       4       0.00000000     0.00000000     0.00000000     0.00000000    -0.07995027
       5       0.00000000     0.00888336     0.00000000     0.00000000     0.00000000
       6       0.00000000     0.00000000     0.00000000     0.00000000     0.02809166
       7      -0.00306505     0.00000000     0.00000000    -0.00919515     0.00000000
       8       0.00000000     0.00000000     0.02809166     0.00000000     0.00000000
       9       0.00444168     0.00000000     0.00000000     0.00444168     0.00000000
      10       0.00000000     0.00000000    -0.02665009     0.00000000     0.00000000
      11      -0.00486562     0.00000000     0.00000000     0.02432809     0.00000000
      12       0.00000000     0.00000000     0.02282177     0.00000000     0.00000000
      13       0.00658808     0.00000000     0.00000000    -0.09882118     0.00000000

               Column   6     Column   7     Column   8     Column   9     Column  10
       1       0.00000000    -0.13176157     0.00000000     0.00000000     0.00000000
       3       0.00000000     0.00000000     0.00000000     0.19462474     0.00000000
       5       0.00000000     0.01776673     0.00000000    -0.14213381     0.00000000
       7       0.05517093     0.00000000     0.00000000     0.00000000     0.00000000
       8       0.00000000     0.00000000     0.05618332     0.00000000    -0.11236664
       9      -0.07106691     0.00000000     0.00000000     0.00000000     0.00000000
      10       0.00000000     0.00000000     0.05330018     0.00000000     0.07106691
      11       0.04865618     0.00000000     0.00000000     0.00000000     0.00000000
      12       0.00000000     0.00000000    -0.22821773     0.00000000     0.00000000

               Column  11     Column  12     Column  13     Column  14     Column  15
       2       0.00000000    -0.22821773     0.00000000     0.00000000     0.00000000
       4       0.00000000    -0.05330018     0.00000000     0.21320072     0.00000000
       6       0.00000000     0.05618332     0.00000000    -0.11236664     0.00000000
       7      -0.00919515     0.00000000     0.11034185     0.00000000    -0.07356124
       9      -0.00444168     0.00000000     0.00000000     0.00000000     0.07106691
      11       0.02432809     0.00000000    -0.29193710     0.00000000     0.00000000
      13       0.09882118     0.00000000     0.00000000     0.00000000     0.00000000

               Column  16     Column  17     Column  18     Column  19     Column  20
       1       0.03952847     0.00000000     0.00000000     0.00000000     0.00000000
       3       0.01946247     0.00000000    -0.19462474     0.00000000     0.00000000
       5       0.00888336     0.00000000    -0.14213381     0.00000000     0.14213381
       8       0.00000000     0.02809166     0.00000000    -0.11236664     0.00000000
      10       0.00000000     0.07995027     0.00000000    -0.21320072     0.00000000
      12       0.00000000     0.11410887     0.00000000     0.00000000     0.00000000

               Column  21     Column  22     Column  23     Column  24     Column  25
       2       0.00000000     0.00000000     0.02282177     0.00000000     0.00000000
       4       0.00000000     0.00000000     0.02665009     0.00000000    -0.07106691
       6       0.00000000     0.00000000     0.02809166     0.00000000    -0.11236664
       7       0.00000000    -0.00306505     0.00000000     0.05517093     0.00000000
       8       0.04494666     0.00000000     0.00000000     0.00000000     0.00000000
       9       0.00000000    -0.00444168     0.00000000     0.07106691     0.00000000
      11       0.00000000    -0.00486562     0.00000000     0.04865618     0.00000000
      13       0.00000000    -0.00658808     0.00000000     0.00000000     0.00000000

               Column  26     Column  27     Column  28
       6       0.00000000     0.04494666     0.00000000
       7      -0.07356124     0.00000000     0.00980816
       9      -0.07106691     0.00000000     0.00000000
    ==== End of matrix output ====

  Coefficients for angular quantum number     7
  to GTOs with labels:
     8k7- 8k6- 8k5- 8k4- 8k3- 8k2- 8k1- 8k0  8k1+ 8k2+ 8k3+ 8k4+ 8k5+ 8k6+ 8k7+

               Column   1     Column   2     Column   3     Column   4     Column   5
       1       0.00000000     0.01232517     0.00000000     0.00000000     0.00000000
       2       0.00000000     0.00000000     0.00000000     0.00000000     0.03952847
       3       0.00000000    -0.00646014     0.00000000     0.00000000     0.00000000
       4       0.00000000     0.00000000     0.00000000     0.00000000    -0.03100868
       5       0.00000000     0.00350605     0.00000000     0.00000000     0.00000000
       6       0.00000000     0.00000000     0.00000000     0.00000000     0.01652768
       7       0.00000000    -0.00112457     0.00000000     0.00000000     0.00000000
       8       0.00000000     0.00000000    -0.00595065     0.00000000     0.00000000
       9      -0.00112457     0.00000000     0.00000000    -0.00337370     0.00000000
      10       0.00000000     0.00000000     0.00826384     0.00000000     0.00000000
      11       0.00116868     0.00000000     0.00000000    -0.00116868     0.00000000
      12       0.00000000     0.00000000    -0.00775217     0.00000000     0.00000000
      13      -0.00129203     0.00000000     0.00000000     0.01162826     0.00000000
      14       0.00000000     0.00000000     0.00658808     0.00000000     0.00000000
      15       0.00176074     0.00000000     0.00000000    -0.03697550     0.00000000

               Column   6     Column   7     Column   8     Column   9     Column  10
       1       0.00000000    -0.06162583     0.00000000     0.00000000     0.00000000
       3       0.00000000     0.00646014     0.00000000     0.07752171     0.00000000
       5       0.00000000     0.00584342     0.00000000    -0.07012102     0.00000000
       7       0.00000000    -0.00337370     0.00000000     0.02698959     0.00000000
       8       0.00000000     0.00000000    -0.01785194     0.00000000     0.03570388
       9       0.02698959     0.00000000     0.00000000     0.00000000     0.00000000
      10       0.00000000     0.00000000     0.00826384     0.00000000    -0.04407382
      11      -0.02337367     0.00000000     0.00000000     0.00000000     0.00000000
      12       0.00000000     0.00000000     0.03876085     0.00000000     0.02584057
      13       0.01550434     0.00000000     0.00000000     0.00000000     0.00000000
      14       0.00000000     0.00000000    -0.09882118     0.00000000     0.00000000

               Column  11     Column  12     Column  13     Column  14     Column  15
       2       0.00000000    -0.13176157     0.00000000     0.00000000     0.00000000
       4       0.00000000     0.00000000     0.00000000     0.10336228     0.00000000
       6       0.00000000     0.03305537     0.00000000    -0.08814765     0.00000000
       9      -0.00337370     0.00000000     0.05397919     0.00000000    -0.05397919
      11      -0.00584342     0.00000000     0.04674735     0.00000000     0.03116490
      13       0.00646014     0.00000000    -0.15504342     0.00000000     0.00000000
      15       0.06162583     0.00000000     0.00000000     0.00000000     0.00000000

               Column  16     Column  17     Column  18     Column  19     Column  20
       1       0.03697550     0.00000000     0.00000000     0.00000000     0.00000000
       3       0.01162826     0.00000000    -0.15504342     0.00000000     0.00000000
       5       0.00116868     0.00000000    -0.04674735     0.00000000     0.09349470
       7      -0.00337370     0.00000000     0.05397919     0.00000000    -0.05397919
       8       0.00000000    -0.01785194     0.00000000     0.07140776     0.00000000
      10       0.00000000    -0.00826384     0.00000000     0.00000000     0.00000000
      12       0.00000000     0.03876085     0.00000000    -0.15504342     0.00000000
      14       0.00000000     0.09882118     0.00000000     0.00000000     0.00000000

               Column  21     Column  22     Column  23     Column  24     Column  25
       2       0.00000000     0.00000000     0.03952847     0.00000000     0.00000000
       4       0.00000000     0.00000000     0.03100868     0.00000000    -0.10336228
       6       0.00000000     0.00000000     0.01652768     0.00000000    -0.08814765
       8      -0.02856310     0.00000000     0.00000000     0.00000000     0.00000000
       9       0.00000000    -0.00112457     0.00000000     0.02698959     0.00000000
      10       0.02644429     0.00000000     0.00000000     0.00000000     0.00000000
      11       0.00000000    -0.00350605     0.00000000     0.07012102     0.00000000
      13       0.00000000    -0.00646014     0.00000000     0.07752171     0.00000000
      15       0.00000000    -0.01232517     0.00000000     0.00000000     0.00000000

               Column  26     Column  27     Column  28     Column  29     Column  30
       1       0.00000000     0.00000000     0.00000000    -0.00176074     0.00000000
       3       0.00000000     0.00000000     0.00000000    -0.00129203     0.00000000
       5       0.00000000     0.00000000     0.00000000    -0.00116868     0.00000000
       6       0.00000000     0.05288859     0.00000000     0.00000000     0.00000000
       7       0.00000000     0.00000000     0.00000000    -0.00112457     0.00000000
       8       0.00000000     0.00000000     0.00000000     0.00000000    -0.00595065
       9      -0.05397919     0.00000000     0.01439445     0.00000000     0.00000000
      10       0.00000000     0.00000000     0.00000000     0.00000000    -0.00826384
      11      -0.09349470     0.00000000     0.00000000     0.00000000     0.00000000
      12       0.00000000     0.00000000     0.00000000     0.00000000    -0.00775217
      14       0.00000000     0.00000000     0.00000000     0.00000000    -0.00658808

               Column  31     Column  32     Column  33     Column  34     Column  35
       3       0.01550434     0.00000000     0.00000000     0.00000000     0.00000000
       5       0.02337367     0.00000000    -0.03116490     0.00000000     0.00000000
       7       0.02698959     0.00000000    -0.05397919     0.00000000     0.01439445
       8       0.00000000     0.03570388     0.00000000    -0.02856310     0.00000000
      10       0.00000000     0.04407382     0.00000000    -0.02644429     0.00000000
      12       0.00000000     0.02584057     0.00000000     0.00000000     0.00000000

               Column  36
       8       0.00272030
    ==== End of matrix output ====

  Atomic type no.    1
  --------------------
  Nuclear charge:  26.00000
  Number of symmetry independent centers:    1
   Symmetry independent centers:
      Fe     0.000920000000000   0.000000000000000   0.377890000000000
  Number of basis sets to read;    2
 BASLIB: Q, QEFF, INTQ   26.0000000000000        26.0000000000000     
          26
 BASLIB: BASNAM 
 cc-pVDZ-DK_ogc                                                                 
  


                                Output from BASLIB
                                ------------------

 ISTART =          16
 BASTMP = cc-pVDZ-DK_ogc                                                                  
 IPOLST =           0
 POLFUN = F
 ANO    = F
 SADLEJ = F
 NQVD   = F
  Basis set file used for this atomic type with Z =  26 :
  Trying file: "/work/sdujk/kjellgren/test/cc-pVDZ-DK_ogc"
  Trying file: "/gpfs/gss1/work/sdujk/kjellgren/programs/dalton/srdft_dalton_intel/basis/cc-pVDZ-DK_ogc"
     "/gpfs/gss1/work/sdujk/kjellgren/programs/dalton/srdft_dalton_intel/basis/cc-pVDZ-DK_ogc"

  Output from FIND_POS... read INTEXP, INTORB, INTISG        20         6         0


                               Output from READ_NU
                               -------------------

 INTEXP,INTORB,NBLOCK:          20           6           1
 IPRINT=          10
 READ_NU read - J,NBLOCK,ALPHA(J,NBLOCK)           1           1
   4316265.00000000     
 READ_NU read - CPRIMU:  1.400000000000000E-004 -7.200000000000000E-005
  1.700000000000000E-005 -4.000000000000000E-006 -7.000000000000000E-006
  0.000000000000000E+000
 READ_NU read - J,NBLOCK,ALPHA(J,NBLOCK)           2           1
   646342.400000000     
 READ_NU read - CPRIMU:  4.050000000000000E-004 -2.090000000000000E-004
  4.900000000000000E-005 -1.100000000000000E-005 -2.100000000000000E-005
  0.000000000000000E+000
 READ_NU read - J,NBLOCK,ALPHA(J,NBLOCK)           3           1
   147089.700000000     
 READ_NU read - CPRIMU:  1.119000000000000E-003 -5.790000000000000E-004
  1.350000000000000E-004 -2.900000000000000E-005 -5.800000000000000E-005
  0.000000000000000E+000
 READ_NU read - J,NBLOCK,ALPHA(J,NBLOCK)           4           1
   41661.5200000000     
 READ_NU read - CPRIMU:  2.907000000000000E-003 -1.506000000000000E-003
  3.520000000000000E-004 -7.700000000000000E-005 -1.550000000000000E-004
  0.000000000000000E+000
 READ_NU read - J,NBLOCK,ALPHA(J,NBLOCK)           5           1
   13590.7700000000     
 READ_NU read - CPRIMU:  7.571000000000000E-003 -3.939000000000000E-003
  9.230000000000000E-004 -2.010000000000000E-004 -3.930000000000000E-004
  0.000000000000000E+000
 READ_NU read - J,NBLOCK,ALPHA(J,NBLOCK)           6           1
   4905.75000000000     
 READ_NU read - CPRIMU:  1.981800000000000E-002 -1.039600000000000E-002
  2.452000000000000E-003 -5.350000000000000E-004 -1.101000000000000E-003
  0.000000000000000E+000
 READ_NU read - J,NBLOCK,ALPHA(J,NBLOCK)           7           1
   1912.74600000000     
 READ_NU read - CPRIMU:  5.073400000000000E-002 -2.707400000000000E-002
  6.451000000000000E-003 -1.408000000000000E-003 -2.693000000000000E-003
  0.000000000000000E+000
 READ_NU read - J,NBLOCK,ALPHA(J,NBLOCK)           8           1
   792.604300000000     
 READ_NU read - CPRIMU:  0.118729000000000      -6.577700000000000E-002
  1.610600000000000E-002 -3.518000000000000E-003 -7.404000000000000E-003
  0.000000000000000E+000
 READ_NU read - J,NBLOCK,ALPHA(J,NBLOCK)           9           1
   344.806500000000     
 READ_NU read - CPRIMU:  0.231164000000000      -0.139082000000000     
  3.574200000000000E-002 -7.814000000000000E-003 -1.448400000000000E-002
  0.000000000000000E+000
 READ_NU read - J,NBLOCK,ALPHA(J,NBLOCK)          10           1
   155.899900000000     
 READ_NU read - CPRIMU:  0.319322000000000      -0.230150000000000     
  6.552800000000000E-002 -1.437200000000000E-002 -3.185300000000000E-002
  0.000000000000000E+000
 READ_NU read - J,NBLOCK,ALPHA(J,NBLOCK)          11           1
   72.2309100000000     
 READ_NU read - CPRIMU:  0.233648000000000      -0.229663000000000     
  7.443000000000000E-002 -1.638300000000000E-002 -2.535200000000000E-002
  0.000000000000000E+000
 READ_NU read - J,NBLOCK,ALPHA(J,NBLOCK)          12           1
   32.7250600000000     
 READ_NU read - CPRIMU:  7.402200000000000E-002  4.609100000000000E-002
 -2.571100000000000E-002  5.643000000000000E-003 -7.887000000000000E-003
  0.000000000000000E+000
 READ_NU read - J,NBLOCK,ALPHA(J,NBLOCK)          13           1
   15.6676200000000     
 READ_NU read - CPRIMU:  9.095200000000001E-002  0.515051000000000     
 -0.308645000000000       7.122100000000001E-002  0.191470000000000     
  0.000000000000000E+000
 READ_NU read - J,NBLOCK,ALPHA(J,NBLOCK)          14           1
   7.50348300000000     
 READ_NU read - CPRIMU:  8.889800000000000E-002  0.487175000000000     
 -0.446544000000000       0.107800000000000       0.148242000000000     
  0.000000000000000E+000
 READ_NU read - J,NBLOCK,ALPHA(J,NBLOCK)          15           1
   3.31222300000000     
 READ_NU read - CPRIMU:  1.430200000000000E-002  8.438000000000000E-002
  0.148985000000000      -4.426200000000000E-002  5.076100000000000E-002
  0.000000000000000E+000
 READ_NU read - J,NBLOCK,ALPHA(J,NBLOCK)          16           1
   1.55847100000000     
 READ_NU read - CPRIMU: -3.870000000000000E-004 -5.911000000000000E-003
  0.720395000000000      -0.225999000000000       -1.01224600000000     
  0.000000000000000E+000
 READ_NU read - J,NBLOCK,ALPHA(J,NBLOCK)          17           1
  0.683914000000000     
 READ_NU read - CPRIMU:  8.000000000000000E-006 -4.400000000000000E-005
  0.389698000000000      -0.237628000000000       0.342339000000000     
  0.000000000000000E+000
 READ_NU read - J,NBLOCK,ALPHA(J,NBLOCK)          18           1
  0.146757000000000     
 READ_NU read - CPRIMU: -2.500000000000000E-005 -4.870000000000000E-004
  1.918400000000000E-002  0.297780000000000        1.85726600000000     
  0.000000000000000E+000
 READ_NU read - J,NBLOCK,ALPHA(J,NBLOCK)          19           1
  7.058300000000001E-002
 READ_NU read - CPRIMU:  3.200000000000000E-005  4.370000000000000E-004
 -7.023000000000000E-003  0.565497000000000       -1.06367900000000     
  0.000000000000000E+000
 READ_NU read - J,NBLOCK,ALPHA(J,NBLOCK)          20           1
  3.144900000000000E-002
 READ_NU read - CPRIMU:  0.000000000000000E+000  0.000000000000000E+000
  0.000000000000000E+000  0.000000000000000E+000  0.000000000000000E+000
   1.00000000000000     
 READ_NU...NBLOCK,INTEXP=           1          20
   4316265.00000000        646342.400000000        147089.700000000     
   41661.5200000000        13590.7700000000        4905.75000000000     
   1912.74600000000        792.604300000000        344.806500000000     
   155.899900000000        72.2309100000000        32.7250600000000     
   15.6676200000000        7.50348300000000        3.31222300000000     
   1.55847100000000       0.683914000000000       0.146757000000000     
  7.058300000000001E-002  3.144900000000000E-002

  Output from FIND_POS... read INTEXP, INTORB, INTISG        16         5         0


                               Output from READ_NU
                               -------------------

 INTEXP,INTORB,NBLOCK:          16           5           2
 IPRINT=          10
 READ_NU read - J,NBLOCK,ALPHA(J,NBLOCK)           1           2
   17745.6900000000     
 READ_NU read - CPRIMU:  1.230000000000000E-004 -4.300000000000000E-005
  9.000000000000000E-006  1.400000000000000E-005  0.000000000000000E+000
 READ_NU read - J,NBLOCK,ALPHA(J,NBLOCK)           2           2
   4200.72100000000     
 READ_NU read - CPRIMU:  5.660000000000000E-004 -2.000000000000000E-004
  4.400000000000000E-005  6.600000000000001E-005  0.000000000000000E+000
 READ_NU read - J,NBLOCK,ALPHA(J,NBLOCK)           3           2
   1364.42900000000     
 READ_NU read - CPRIMU:  2.608000000000000E-003 -9.230000000000000E-004
  2.010000000000000E-004  3.030000000000000E-004  0.000000000000000E+000
 READ_NU read - J,NBLOCK,ALPHA(J,NBLOCK)           4           2
   522.080600000000     
 READ_NU read - CPRIMU:  1.029500000000000E-002 -3.668000000000000E-003
  8.000000000000000E-004  1.219000000000000E-003  0.000000000000000E+000
 READ_NU read - J,NBLOCK,ALPHA(J,NBLOCK)           5           2
   221.459500000000     
 READ_NU read - CPRIMU:  3.475100000000000E-002 -1.253900000000000E-002
  2.738000000000000E-003  4.120000000000000E-003  0.000000000000000E+000
 READ_NU read - J,NBLOCK,ALPHA(J,NBLOCK)           6           2
   100.909600000000     
 READ_NU read - CPRIMU:  9.669000000000000E-002 -3.584800000000000E-002
  7.848000000000001E-003  1.195300000000000E-002  0.000000000000000E+000
 READ_NU read - J,NBLOCK,ALPHA(J,NBLOCK)           7           2
   48.4011500000000     
 READ_NU read - CPRIMU:  0.210030000000000      -8.082200000000000E-002
  1.773900000000000E-002  2.662000000000000E-002  0.000000000000000E+000
 READ_NU read - J,NBLOCK,ALPHA(J,NBLOCK)           8           2
   23.9853600000000     
 READ_NU read - CPRIMU:  0.332457000000000      -0.134697000000000     
  2.974900000000000E-002  4.569900000000000E-002  0.000000000000000E+000
 READ_NU read - J,NBLOCK,ALPHA(J,NBLOCK)           9           2
   12.1825000000000     
 READ_NU read - CPRIMU:  0.330771000000000      -0.136912000000000     
  3.038900000000000E-002  4.503300000000000E-002  0.000000000000000E+000
 READ_NU read - J,NBLOCK,ALPHA(J,NBLOCK)          10           2
   6.24229800000000     
 READ_NU read - CPRIMU:  0.154733000000000       3.371300000000000E-002
 -1.076500000000000E-002 -1.301100000000000E-002  0.000000000000000E+000
 READ_NU read - J,NBLOCK,ALPHA(J,NBLOCK)          11           2
   3.11094400000000     
 READ_NU read - CPRIMU:  2.096400000000000E-002  0.335670000000000     
 -8.768900000000000E-002 -0.141375000000000       0.000000000000000E+000
 READ_NU read - J,NBLOCK,ALPHA(J,NBLOCK)          12           2
   1.50995800000000     
 READ_NU read - CPRIMU: -2.346000000000000E-003  0.455496000000000     
 -0.128470000000000      -0.194148000000000       0.000000000000000E+000
 READ_NU read - J,NBLOCK,ALPHA(J,NBLOCK)          13           2
  0.710845000000000     
 READ_NU read - CPRIMU: -1.854000000000000E-003  0.281760000000000     
 -7.399600000000001E-002 -0.101770000000000       0.000000000000000E+000
 READ_NU read - J,NBLOCK,ALPHA(J,NBLOCK)          14           2
  0.272598000000000     
 READ_NU read - CPRIMU: -3.170000000000000E-004  4.515000000000000E-002
  0.215455000000000       0.467864000000000       0.000000000000000E+000
 READ_NU read - J,NBLOCK,ALPHA(J,NBLOCK)          15           2
  0.103972000000000     
 READ_NU read - CPRIMU:  3.000000000000000E-005 -3.165000000000000E-003
  0.572005000000000       0.624218000000000       0.000000000000000E+000
 READ_NU read - J,NBLOCK,ALPHA(J,NBLOCK)          16           2
  3.816600000000000E-002
 READ_NU read - CPRIMU:  0.000000000000000E+000  0.000000000000000E+000
  0.000000000000000E+000  0.000000000000000E+000   1.00000000000000     
 READ_NU...NBLOCK,INTEXP=           2          16
   17745.6900000000        4200.72100000000        1364.42900000000     
   522.080600000000        221.459500000000        100.909600000000     
   48.4011500000000        23.9853600000000        12.1825000000000     
   6.24229800000000        3.11094400000000        1.50995800000000     
  0.710845000000000       0.272598000000000       0.103972000000000     
  3.816600000000000E-002

  Output from FIND_POS... read INTEXP, INTORB, INTISG         8         3         0


                               Output from READ_NU
                               -------------------

 INTEXP,INTORB,NBLOCK:           8           3           3
 IPRINT=          10
 READ_NU read - J,NBLOCK,ALPHA(J,NBLOCK)           1           3
   114.884000000000     
 READ_NU read - CPRIMU:  3.532000000000000E-003 -3.896000000000000E-003
  0.000000000000000E+000
 READ_NU read - J,NBLOCK,ALPHA(J,NBLOCK)           2           3
   33.8878000000000     
 READ_NU read - CPRIMU:  2.555000000000000E-002 -2.820700000000000E-002
  0.000000000000000E+000
 READ_NU read - J,NBLOCK,ALPHA(J,NBLOCK)           3           3
   12.3730000000000     
 READ_NU read - CPRIMU:  9.835700000000000E-002 -0.111573000000000     
  0.000000000000000E+000
 READ_NU read - J,NBLOCK,ALPHA(J,NBLOCK)           4           3
   4.99925000000000     
 READ_NU read - CPRIMU:  0.237919000000000      -0.272839000000000     
  0.000000000000000E+000
 READ_NU read - J,NBLOCK,ALPHA(J,NBLOCK)           5           3
   2.07043000000000     
 READ_NU read - CPRIMU:  0.356539000000000      -0.317152000000000     
  0.000000000000000E+000
 READ_NU read - J,NBLOCK,ALPHA(J,NBLOCK)           6           3
  0.828183000000000     
 READ_NU read - CPRIMU:  0.362848000000000       5.206200000000000E-002
  0.000000000000000E+000
 READ_NU read - J,NBLOCK,ALPHA(J,NBLOCK)           7           3
  0.307547000000000     
 READ_NU read - CPRIMU:  0.238803000000000       0.561269000000000     
  0.000000000000000E+000
 READ_NU read - J,NBLOCK,ALPHA(J,NBLOCK)           8           3
  9.945500000000000E-002
 READ_NU read - CPRIMU:  0.000000000000000E+000  0.000000000000000E+000
   1.00000000000000     
 READ_NU...NBLOCK,INTEXP=           3           8
   114.884000000000        33.8878000000000        12.3730000000000     
   4.99925000000000        2.07043000000000       0.828183000000000     
  0.307547000000000       9.945500000000000E-002

  Output from FIND_POS... read INTEXP, INTORB, INTISG         2         1         0


                               Output from READ_NU
                               -------------------

 INTEXP,INTORB,NBLOCK:           2           1           4
 IPRINT=          10
 READ_NU read - J,NBLOCK,ALPHA(J,NBLOCK)           1           4
   3.22430000000000     
 READ_NU read - CPRIMU:  0.422249000000000     
 READ_NU read - J,NBLOCK,ALPHA(J,NBLOCK)           2           4
  0.775800000000000     
 READ_NU read - CPRIMU:  0.771468000000000     
 READ_NU...NBLOCK,INTEXP=           4           2
   3.22430000000000       0.775800000000000     

  Output from FIND_POS: New element

  Info about the basis set file: your basis has no documentation.
  Basis set: cc-pVDZ-DK_ogc                                                                  
  Basis set:
      Max.ang.quantum no.:    3  Blocks:    1    1    1    1
 BASLIB: Q, QEFF, INTQ   26.0000000000000        26.0000000000000     
          26
 BASLIB: BASNAM 
 HUCKEL                                                                         
  
  Basis set file used for this atomic type with Z =  26 :
  Trying file: "/work/sdujk/kjellgren/test/ano-4"
  Trying file: "/gpfs/gss1/work/sdujk/kjellgren/programs/dalton/srdft_dalton_intel/basis/ano-4"
     "/gpfs/gss1/work/sdujk/kjellgren/programs/dalton/srdft_dalton_intel/basis/ano-4"
  Basis set:
      Max.ang.quantum no.:    2  Blocks:    1    1    1

  Atomic type no.    2
  --------------------
  Nuclear charge:   7.00000
  Number of symmetry independent centers:    1
   Symmetry independent centers:
      N      0.000620000000000   0.000000000000000   3.515450000000000
  Number of basis sets to read;    2
 BASLIB: Q, QEFF, INTQ   7.00000000000000        7.00000000000000     
           7
 BASLIB: BASNAM 
 cc-pVDZ-DK_ogc                                                                 
  


                                Output from BASLIB
                                ------------------

 ISTART =          16
 BASTMP = cc-pVDZ-DK_ogc                                                                  
 IPOLST =           0
 POLFUN = F
 ANO    = F
 SADLEJ = F
 NQVD   = F
  Basis set file used for this atomic type with Z =   7 :
  Trying file: "/work/sdujk/kjellgren/test/cc-pVDZ-DK_ogc"
  Trying file: "/gpfs/gss1/work/sdujk/kjellgren/programs/dalton/srdft_dalton_intel/basis/cc-pVDZ-DK_ogc"
     "/gpfs/gss1/work/sdujk/kjellgren/programs/dalton/srdft_dalton_intel/basis/cc-pVDZ-DK_ogc"

  Output from FIND_POS... read INTEXP, INTORB, INTISG         9         3         0


                               Output from READ_NU
                               -------------------

 INTEXP,INTORB,NBLOCK:           9           3           1
 IPRINT=          10
 READ_NU read - J,NBLOCK,ALPHA(J,NBLOCK)           1           1
   9046.00000000000     
 READ_NU read - CPRIMU:  9.106000000000000E-004 -1.995000000000000E-004
  0.000000000000000E+000
 READ_NU read - J,NBLOCK,ALPHA(J,NBLOCK)           2           1
   1357.00000000000     
 READ_NU read - CPRIMU:  5.644400000000000E-003 -1.266900000000000E-003
  0.000000000000000E+000
 READ_NU read - J,NBLOCK,ALPHA(J,NBLOCK)           3           1
   309.300000000000     
 READ_NU read - CPRIMU:  2.780720000000000E-002 -6.090600000000000E-003
  0.000000000000000E+000
 READ_NU read - J,NBLOCK,ALPHA(J,NBLOCK)           4           1
   87.7300000000000     
 READ_NU read - CPRIMU:  0.103680500000000      -2.469700000000000E-002
  0.000000000000000E+000
 READ_NU read - J,NBLOCK,ALPHA(J,NBLOCK)           5           1
   28.5600000000000     
 READ_NU read - CPRIMU:  0.279014200000000      -6.760280000000000E-002
  0.000000000000000E+000
 READ_NU read - J,NBLOCK,ALPHA(J,NBLOCK)           6           1
   10.2100000000000     
 READ_NU read - CPRIMU:  0.448221600000000      -0.158233500000000     
  0.000000000000000E+000
 READ_NU read - J,NBLOCK,ALPHA(J,NBLOCK)           7           1
   3.83800000000000     
 READ_NU read - CPRIMU:  0.277737300000000      -0.121206000000000     
  0.000000000000000E+000
 READ_NU read - J,NBLOCK,ALPHA(J,NBLOCK)           8           1
  0.746600000000000     
 READ_NU read - CPRIMU:  1.539930000000000E-002  0.549887100000000     
  0.000000000000000E+000
 READ_NU read - J,NBLOCK,ALPHA(J,NBLOCK)           9           1
  0.224800000000000     
 READ_NU read - CPRIMU:  0.000000000000000E+000  0.000000000000000E+000
   1.00000000000000     
 READ_NU...NBLOCK,INTEXP=           1           9
   9046.00000000000        1357.00000000000        309.300000000000     
   87.7300000000000        28.5600000000000        10.2100000000000     
   3.83800000000000       0.746600000000000       0.224800000000000     

  Output from FIND_POS... read INTEXP, INTORB, INTISG         4         2         0


                               Output from READ_NU
                               -------------------

 INTEXP,INTORB,NBLOCK:           4           2           2
 IPRINT=          10
 READ_NU read - J,NBLOCK,ALPHA(J,NBLOCK)           1           2
   13.5500000000000     
 READ_NU read - CPRIMU:  4.001030000000000E-002  0.000000000000000E+000
 READ_NU read - J,NBLOCK,ALPHA(J,NBLOCK)           2           2
   2.91700000000000     
 READ_NU read - CPRIMU:  0.217213200000000       0.000000000000000E+000
 READ_NU read - J,NBLOCK,ALPHA(J,NBLOCK)           3           2
  0.797300000000000     
 READ_NU read - CPRIMU:  0.510190700000000       0.000000000000000E+000
 READ_NU read - J,NBLOCK,ALPHA(J,NBLOCK)           4           2
  0.218500000000000     
 READ_NU read - CPRIMU:  0.000000000000000E+000   1.00000000000000     
 READ_NU...NBLOCK,INTEXP=           2           4
   13.5500000000000        2.91700000000000       0.797300000000000     
  0.218500000000000     

  Output from FIND_POS... read INTEXP, INTORB, INTISG         1         1         0


                               Output from READ_NU
                               -------------------

 INTEXP,INTORB,NBLOCK:           1           1           3
 IPRINT=          10
 READ_NU read - J,NBLOCK,ALPHA(J,NBLOCK)           1           3
  0.817000000000000     
 READ_NU read - CPRIMU:   1.00000000000000     
 READ_NU...NBLOCK,INTEXP=           3           1
  0.817000000000000     

  Output from FIND_POS: New element

  Info about the basis set file: your basis has no documentation.
  Basis set: cc-pVDZ-DK_ogc                                                                  
[...]
  51 C   :1s     0.0087   0.0210  -0.0088  -0.0370   0.0228  -0.0184   0.0093
  52 C   :1s     0.0121  -0.0107   0.0309  -0.2393   0.1803   0.0811   0.0335
  53 C   :2px   -0.0050  -0.0587  -0.0226  -0.0204  -0.0039  -0.0478   0.0323
  54 C   :2py   -0.0231   0.0273   0.0701  -0.0150   0.0818   0.0053   0.2359
  55 C   :2pz   -0.0329  -0.0472   0.0389   0.0260   0.0159  -0.0092   0.1426
  56 C   :2px   -0.0031  -0.0254  -0.0060   0.1699  -0.1113   0.0402   0.0864
  57 C   :2py   -0.0087  -0.0018   0.0440   0.1202  -0.0803   0.0703   0.3452
  58 C   :2pz   -0.0144   0.0031  -0.0079  -0.2077   0.1097  -0.1217   0.0895
  59 C   :3d2-  -0.0145  -0.0137   0.0123  -0.0064   0.0082  -0.0017  -0.0055
  60 C   :3d1-   0.0137  -0.0069  -0.0145   0.0101  -0.0122  -0.0022   0.0005
  61 C   :3d0    0.0266   0.0113  -0.0030  -0.0069   0.0056   0.0049  -0.0045
  62 C   :3d1+   0.0007   0.0237   0.0013   0.0110  -0.0021   0.0029   0.0025
  63 C   :3d2+   0.0059  -0.0117  -0.0079   0.0003  -0.0041  -0.0060  -0.0006
  64 O   :1s    -0.0000   0.0005  -0.0009  -0.0126   0.0066  -0.0028  -0.0037
  65 O   :1s    -0.0017  -0.0038   0.0053  -0.0569   0.0262  -0.0069  -0.0173
  66 O   :1s     0.0004  -0.0063   0.0167   0.0834  -0.0644   0.0378   0.0239
  67 O   :2px    0.0355   0.1158   0.0294   0.0250   0.0108   0.0827  -0.0308
  68 O   :2py    0.1023  -0.0374  -0.0779  -0.0012  -0.0958  -0.0142  -0.1432
  69 O   :2pz    0.0900   0.0645  -0.0484   0.0020  -0.0366   0.0244  -0.0994
  70 O   :2px    0.0300   0.1001   0.0270   0.0553  -0.0023   0.1016  -0.0271
  71 O   :2py    0.0838  -0.0293  -0.0761   0.0395  -0.1216  -0.0079  -0.1756
  72 O   :2pz    0.0717   0.0507  -0.0397  -0.0684   0.0081   0.0135  -0.1445
  79 O   :1s    -0.0000   0.0093  -0.0000  -0.0241   0.0000   0.0454   0.0000
  80 O   :1s     0.0000   0.0306   0.0000   0.0723   0.0001  -0.1234   0.0001
  81 O   :2px   -0.0001  -0.1186  -0.0004   0.0032   0.0001   0.0629   0.0001
  82 O   :2py   -0.1597   0.0001  -0.3386   0.0001   0.1072  -0.0001   0.1249
  83 O   :2px   -0.0001  -0.1020  -0.0004  -0.0482   0.0002   0.2639   0.0001
  84 O   :2py   -0.1273   0.0001  -0.3314   0.0001   0.0958  -0.0003   0.1545
  88 O   :1s     0.0001   0.0005   0.0019  -0.0126  -0.0133  -0.0028   0.0075
  89 O   :1s     0.0033  -0.0038  -0.0106  -0.0569  -0.0523  -0.0069   0.0345
  90 O   :1s    -0.0007  -0.0063  -0.0334   0.0833   0.1286   0.0378  -0.0476
  91 O   :2px   -0.0710   0.1159  -0.0587   0.0251  -0.0217   0.0827   0.0612
  92 O   :2py   -0.0534   0.0744   0.0058   0.0024  -0.0327   0.0281   0.0285
  93 O   :2px   -0.0600   0.1002  -0.0541   0.0552   0.0042   0.1016   0.0537
  94 O   :2py   -0.0403   0.0584  -0.0073  -0.0790  -0.1357   0.0155   0.0741

    Orbital        34       35       36       37       38       39
   1 Fe  :1s     0.0000  -0.0026  -0.0000  -0.0000  -0.0344   0.0009
   2 Fe  :1s     0.0000  -0.0078  -0.0000  -0.0001  -0.1025   0.0026
   3 Fe  :1s     0.0000  -0.0423  -0.0001  -0.0003  -0.4807   0.0152
   4 Fe  :1s     0.0001  -0.0884  -0.0000  -0.0008  -0.8793   0.0590
   5 Fe  :1s    -0.0000   0.0083  -0.0000   0.0000  -0.0608  -0.0094
   6 Fe  :1s     0.0005  -0.1296  -0.0000   0.0003   0.3112  -0.0179
   7 Fe  :2px   -0.0000   0.0077   0.0000   0.0000   0.0263   0.0009
   8 Fe  :2py    0.0045  -0.0000   0.0136   0.0424  -0.0001   0.0083
   9 Fe  :2px   -0.0002   0.1141   0.0002   0.0008   0.4464   0.0142
  10 Fe  :2py    0.0669  -0.0001   0.2295   0.7089  -0.0009   0.1350
  11 Fe  :2px   -0.0020   1.4246   0.0021   0.0059   3.3991   0.1294
  12 Fe  :2py    0.9181  -0.0007   1.8626   5.6968  -0.0082   0.6569
  13 Fe  :2px    0.0013  -0.9454  -0.0013  -0.0036  -2.0343  -0.0810
  14 Fe  :2py   -0.5680   0.0006  -1.1021  -3.5073   0.0052  -0.3215
  15 Fe  :2px    0.0011  -0.8395  -0.0002   0.0001  -0.2345  -0.0156
  16 Fe  :2py   -0.4809   0.0003  -0.1557  -0.1039   0.0003   0.0544
  17 Fe  :3d2-   0.0309  -0.0008   0.6241  -0.1102   0.0001   0.0457
  18 Fe  :3d0    0.1515  -0.2479   0.3652  -0.0157  -0.0089  -0.1144
  19 Fe  :3d2+   0.0865   0.4306   0.2118  -0.0093   0.0159  -0.0577
  20 Fe  :3d2-  -0.0017  -0.0000   0.0242  -0.0261  -0.0000   0.0508
  21 Fe  :3d0   -0.0025  -0.0077   0.0074  -0.0125   0.0020  -0.0627
  22 Fe  :3d2+  -0.0015   0.0133   0.0043  -0.0072  -0.0033  -0.0340
  23 Fe  :3d2-   0.1270   0.0006  -0.3110  -1.5094  -0.0009  -1.7851
  24 Fe  :3d0   -0.0206   0.0555  -0.1146  -1.4081  -1.1726   1.2329
  25 Fe  :3d2+  -0.0117  -0.0966  -0.0667  -0.8136   2.0336   0.7017
  26 Fe  :4f3-  -0.0155  -0.0013  -0.0025   0.0029  -0.0016  -0.0023
  30 N   :1s    -0.0000  -0.0039  -0.0000   0.0001   0.0927   0.0003
  31 N   :1s     0.0001  -0.0652  -0.0000   0.0001   0.0849  -0.0052
  32 N   :1s     0.0003  -0.0794  -0.0001  -0.0011  -1.9427  -0.0335
  33 N   :2px   -0.0003   0.0300  -0.0002   0.0002   0.0407   0.0024
  34 N   :2py   -0.2167  -0.0002  -0.2388   0.1406  -0.0002   0.2054
  35 N   :2px   -0.0007   0.2091  -0.0003   0.0004   0.3224   0.0200
  36 N   :2py   -0.2983  -0.0005  -0.2631   0.3240  -0.0010   0.6586
  37 N   :3d2-   0.0049  -0.0000  -0.0111   0.0103   0.0000   0.0133
  38 N   :3d0   -0.0015  -0.0152   0.0034  -0.0113   0.0135   0.0154
  39 N   :3d2+  -0.0009   0.0264   0.0019  -0.0065  -0.0234   0.0087
  40 C   :1s    -0.0000   0.0042   0.0171   0.0761  -0.0095   0.0146
  41 C   :1s     0.0095   0.0412   0.1255   0.0651   0.0078   0.0362
  42 C   :1s     0.0802   0.0867  -0.0812  -2.5124   0.6646  -0.1537
  43 C   :2px    0.3690   0.2326  -0.1032   0.0504   0.1316   0.2035
  44 C   :2py    0.1699   0.0757  -0.1111   0.0825   0.0315   0.0964
  45 C   :2px    0.3555   0.3141  -0.3606  -0.5957   0.7799   0.5102
  46 C   :2py    0.3597   0.0416   0.3287   1.2451  -0.1608   0.7554
  47 C   :3d2-  -0.0100   0.0075   0.0303   0.0223   0.0046  -0.0140
  48 C   :3d0    0.0041   0.0056   0.0223   0.0070  -0.0348   0.0193
  49 C   :3d2+   0.0121  -0.0001   0.0283   0.0060  -0.0007  -0.0128
  50 C   :1s     0.0000   0.0042  -0.0086  -0.0380  -0.0094  -0.0082
  51 C   :1s    -0.0048   0.0412  -0.0628  -0.0325   0.0079  -0.0244
  52 C   :1s    -0.0405   0.0863   0.0407   1.2569   0.6603   0.0544
  53 C   :2px   -0.1850   0.2314   0.0515  -0.0250   0.1316  -0.1063
  54 C   :2py    0.0711  -0.0380  -0.1435   0.1061  -0.0160  -0.1250
  55 C   :2pz   -0.0575   0.0652  -0.0187   0.0136   0.0274  -0.1271
  56 C   :2px   -0.1783   0.3130   0.1803   0.2990   0.7796  -0.2611
  57 C   :2py    0.1386  -0.0209  -0.1466   0.4084   0.0790  -0.5255
  58 C   :2pz   -0.1280   0.0356  -0.2743  -0.4827  -0.1371  -0.7659
  59 C   :3d2-   0.0040  -0.0037   0.0108  -0.0142  -0.0023  -0.0048
  60 C   :3d1-  -0.0040   0.0041  -0.0116  -0.0003  -0.0264   0.0019
  61 C   :3d0    0.0044  -0.0006   0.0150   0.0079   0.0048   0.0062
  62 C   :3d1+   0.0081   0.0065  -0.0113  -0.0210   0.0040   0.0061
  63 C   :3d2+  -0.0023  -0.0037   0.0010   0.0036   0.0221   0.0152
  65 O   :1s    -0.0069  -0.0218   0.0220   0.0167   0.0062   0.0143
  66 O   :1s     0.0358  -0.0067   0.1773   0.2769   0.1927   0.1828
  67 O   :2px    0.1164  -0.1337  -0.0208   0.0117  -0.0216   0.0223
  68 O   :2py   -0.0221   0.0245   0.0992  -0.0336   0.0083   0.0127
  69 O   :2pz    0.0424  -0.0419  -0.0083  -0.0110  -0.0144   0.0170
  70 O   :2px    0.1579  -0.1688  -0.0246   0.0221  -0.1237   0.1220
  71 O   :2py   -0.0322   0.0412   0.1552  -0.0412   0.0452   0.1652
  72 O   :2pz    0.0392  -0.0708  -0.0099  -0.0393  -0.0781   0.0932
  79 O   :1s    -0.0001   0.0614   0.0000  -0.0001  -0.0551   0.0020
  80 O   :1s    -0.0001   0.0630   0.0000  -0.0002  -0.1829  -0.0036
  81 O   :2px    0.0002  -0.0567   0.0001  -0.0000  -0.0012  -0.0020
  82 O   :2py    0.1417   0.0001   0.1528  -0.0260   0.0000   0.0130
  83 O   :2px    0.0002   0.0221   0.0002  -0.0001  -0.0317  -0.0010
  84 O   :2py    0.1921   0.0001   0.1908  -0.0639   0.0002  -0.1426
  88 O   :1s     0.0058  -0.0030   0.0113   0.0198  -0.0077   0.0083
  89 O   :1s     0.0139  -0.0218  -0.0439  -0.0334   0.0062  -0.0238
  90 O   :1s    -0.0715  -0.0069  -0.3546  -0.5538   0.1932  -0.3278
  91 O   :2px   -0.2323  -0.1344   0.0418  -0.0236  -0.0216  -0.0387
  92 O   :2py   -0.0950  -0.0487   0.1136  -0.0146  -0.0165  -0.0190
  93 O   :2px   -0.3150  -0.1698   0.0496  -0.0444  -0.1238  -0.2287
  94 O   :2py   -0.0994  -0.0821   0.1724   0.0269  -0.0900  -0.0066

 Molecular orbitals for symmetry species 2  (A" )
 ------------------------------------------------

    Orbital         4        5        6        7        8        9       10
   1 Fe  :2pz   -0.0115  -0.0012   0.0033  -0.0011  -0.0024  -0.0000   0.0033
   2 Fe  :2pz    0.9951  -0.0254   0.0845  -0.0379  -0.0715  -0.0001   0.1131
   3 Fe  :2pz    0.0344  -0.0371   0.1708  -0.0534  -0.1830  -0.0001   0.1464
   4 Fe  :2pz   -0.0398  -0.0043  -0.1149   0.0854   0.1932   0.0002  -0.2027
   5 Fe  :2pz   -0.0009   0.0056   0.0088   0.0228   0.0287  -0.0000  -0.0079
   6 Fe  :3d1-  -0.0023   0.0015   0.0528   0.1281  -0.1203  -0.0004   0.2385
   7 Fe  :3d1+  -0.0051   0.0016   0.0473  -0.1526   0.0103  -0.0001   0.1486
   8 Fe  :3d1-   0.0019   0.0037   0.0015   0.0021  -0.0050  -0.0000   0.0148
   9 Fe  :3d1+   0.0012   0.0036   0.0038  -0.0096  -0.0032  -0.0000   0.0206
  10 Fe  :3d1-   0.0022   0.0080  -0.0165  -0.0018  -0.0006  -0.0000   0.0102
  11 Fe  :3d1+   0.0010   0.0038  -0.0242  -0.0271  -0.0025  -0.0000   0.0104
  15 N   :2pz    0.0046   0.0002  -0.0010  -0.0309   0.0516  -0.0001   0.0382
  16 N   :2pz    0.0020   0.0027  -0.0018  -0.0091   0.0339  -0.0000   0.0219
  19 C   :2pz    0.0027   0.0011  -0.0077   0.2236   0.0640  -0.1625   0.0748
  20 C   :2pz   -0.0002  -0.0019  -0.0116   0.1041   0.0333  -0.0848   0.0373
  21 C   :3d1-  -0.0015   0.0002  -0.0000   0.0310   0.0116  -0.0284   0.0128
  22 C   :3d1+   0.0009   0.0005   0.0007  -0.0159  -0.0063   0.0141  -0.0035
  23 C   :1s    -0.0011  -0.0134   0.0012   0.0009   0.0014   0.0000  -0.0020
  24 C   :1s     0.0090   0.1416  -0.2315   0.0354   0.0673   0.0002  -0.1711
  25 C   :1s     0.0093   0.0941  -0.2163   0.0309   0.1016   0.0003  -0.2694
  26 C   :2px    0.0054  -0.0619   0.0223  -0.0378   0.2147   0.0001  -0.0807
  27 C   :2py    0.0055  -0.0644   0.0203   0.1470   0.0456   0.1406  -0.1160
  28 C   :2pz   -0.0069   0.1125  -0.0429  -0.0308  -0.0148   0.0809   0.2761
  29 C   :2px    0.0008   0.0101  -0.0369  -0.0252   0.0981  -0.0000   0.0046
  30 C   :2py    0.0003   0.0091  -0.0451   0.0610   0.0103   0.0733  -0.0178
  31 C   :2pz   -0.0007  -0.0176   0.0665  -0.0014   0.0156   0.0423   0.0685
  32 C   :3d2-   0.0023   0.0122  -0.0058  -0.0053  -0.0152  -0.0122  -0.0019
  33 C   :3d1-  -0.0029  -0.0214   0.0112   0.0152  -0.0043   0.0141  -0.0048
  34 C   :3d0    0.0009   0.0146  -0.0078   0.0036   0.0184   0.0212   0.0133
  35 C   :3d1+  -0.0031  -0.0206   0.0107  -0.0067   0.0199  -0.0071  -0.0002
  36 C   :3d2+   0.0001  -0.0004   0.0005   0.0120  -0.0136   0.0123  -0.0026
  38 O   :1s    -0.0007   0.2931   0.1680   0.0028   0.0042   0.0000  -0.0053
  39 O   :1s    -0.0025   0.2718   0.2455   0.0188   0.0198   0.0000  -0.0169
  40 O   :2px   -0.0004   0.0434  -0.1354  -0.1376   0.2647  -0.0003   0.1798
  41 O   :2py   -0.0005   0.0459  -0.1436   0.1658  -0.0555   0.2760   0.1244
  42 O   :2pz    0.0007  -0.0794   0.2418   0.0882   0.2207   0.1596  -0.0687
  43 O   :2px   -0.0004   0.0072  -0.0770  -0.0889   0.1820  -0.0002   0.1170
  44 O   :2py   -0.0004   0.0086  -0.0797   0.1145  -0.0339   0.1870   0.0805
  45 O   :2pz    0.0010  -0.0142   0.1354   0.0527   0.1416   0.1082  -0.0388
  48 O   :3d0   -0.0003   0.0051  -0.0060  -0.0045  -0.0128  -0.0113  -0.0012
  51 O   :2pz   -0.0003   0.0000  -0.0004  -0.0247   0.0464  -0.0001   0.0305
  52 O   :2pz   -0.0006  -0.0008   0.0003  -0.0177   0.0282  -0.0000   0.0194
  55 O   :2pz   -0.0001  -0.0000  -0.0067   0.3750   0.1245  -0.3194   0.1453
  56 O   :2pz    0.0003   0.0006  -0.0024   0.2508   0.0828  -0.2164   0.0997
  57 O   :3d1-  -0.0002  -0.0001   0.0004  -0.0186  -0.0058   0.0151  -0.0070

    Orbital        11       12       13       14       15       16       17
   2 Fe  :2pz   -0.0383   0.0143  -0.0043  -0.1510   0.1247  -0.0671   0.0005
   3 Fe  :2pz   -0.0925  -0.0603   0.7349  -1.8025   1.6560  -0.9198   0.0051
   4 Fe  :2pz    0.0905   0.0052  -0.3537   1.1871  -1.1115   0.5692  -0.0032
   5 Fe  :2pz    0.0327  -0.0076   0.0669   1.4703  -0.8232   0.4809  -0.0012
   6 Fe  :3d1-  -0.0843  -0.6822   0.2997  -0.1343  -0.2832  -0.1742   0.0004
   7 Fe  :3d1+   0.1715   0.5213   0.3428   0.1236   0.2824  -0.0314   0.0006
   8 Fe  :3d1-   0.0045   0.0007   0.0115   0.0107  -0.0033   0.0029  -0.0000
   9 Fe  :3d1+   0.0089   0.0068   0.0258   0.0142  -0.0076   0.0017   0.0000
  10 Fe  :3d1-  -0.0013  -0.0506   0.0529   0.0824   0.0612   0.0241  -0.0003
  11 Fe  :3d1+   0.0362   0.0464   0.0222  -0.2297  -0.1237  -0.1265  -0.0004
  13 Fe  :4f0   -0.0038   0.0014  -0.0035   0.0044   0.0015  -0.0098   0.0129
  14 Fe  :4f2+   0.0049  -0.0018   0.0045  -0.0057  -0.0020   0.0127   0.0100
  15 N   :2pz    0.3562  -0.0137   0.2670  -0.2297  -0.1374   0.2169  -0.0004
  16 N   :2pz    0.2193  -0.0101   0.2259  -0.1642  -0.1390   0.2985  -0.0005
  18 N   :3d1+   0.0276  -0.0195  -0.0382   0.0026   0.0007  -0.0049  -0.0000
  19 C   :2pz    0.0041  -0.0421   0.0927   0.0907   0.3184  -0.0385  -0.3503
  20 C   :2pz    0.0091  -0.0170   0.0395  -0.0170   0.3967  -0.0653  -0.4406
  21 C   :3d1-   0.0031   0.0339  -0.0150  -0.0042  -0.0039  -0.0003   0.0078
  22 C   :3d1+  -0.0007  -0.0140   0.0131   0.0069  -0.0040  -0.0087  -0.0111
  24 C   :1s     0.0032  -0.0152   0.0153  -0.0395  -0.0160  -0.0082   0.0000
  25 C   :1s     0.0325  -0.0211  -0.0531  -0.3112  -0.0582  -0.0690  -0.0006
  26 C   :2px   -0.0167   0.0086   0.0392   0.0068  -0.0557  -0.3197   0.0003
  27 C   :2py    0.0125  -0.0330   0.0389   0.0158   0.1423   0.0578   0.3035
  28 C   :2pz   -0.0175   0.0149   0.0252   0.0634   0.0714  -0.1372   0.1756
  29 C   :2px   -0.0088   0.0053   0.0104   0.1924  -0.1490  -0.3080   0.0001
  30 C   :2py    0.0160  -0.0143  -0.0079   0.1096   0.0892   0.1285   0.3812
  31 C   :2pz   -0.0185   0.0078   0.0530  -0.2068   0.2416  -0.2863   0.2214
  33 C   :3d1-   0.0052   0.0101   0.0103   0.0169  -0.0047  -0.0073  -0.0038
  34 C   :3d0   -0.0052   0.0048  -0.0172  -0.0160   0.0019   0.0071  -0.0058
  35 C   :3d1+  -0.0045  -0.0153   0.0108   0.0106  -0.0083   0.0053   0.0056
  36 C   :3d2+   0.0065   0.0191   0.0007   0.0035  -0.0024  -0.0043  -0.0034
  37 O   :1s    -0.0001   0.0001   0.0016  -0.0115   0.0065  -0.0051   0.0000
  38 O   :1s    -0.0009   0.0029  -0.0092  -0.0452   0.0299  -0.0120   0.0000
  39 O   :1s     0.0036  -0.0006  -0.0290   0.1113  -0.0412   0.0620  -0.0003
  40 O   :2px   -0.0786  -0.0614  -0.0509  -0.0187   0.0532   0.2012  -0.0002
  41 O   :2py    0.0205   0.0899  -0.0483  -0.0364  -0.0992  -0.0425  -0.1771
  42 O   :2pz   -0.0183  -0.0015  -0.0221  -0.0537  -0.0286   0.0708  -0.1024
  43 O   :2px   -0.0548  -0.0519  -0.0469   0.0039   0.0468   0.2729  -0.0003
  44 O   :2py    0.0145   0.0717  -0.0397   0.0083  -0.1442  -0.0394  -0.2438
  45 O   :2pz   -0.0154   0.0011  -0.0303  -0.1309  -0.0091   0.0772  -0.1409
  51 O   :2pz    0.4501  -0.1599  -0.3384   0.1072   0.1250  -0.1419   0.0003
  52 O   :2pz    0.3022  -0.1275  -0.3313   0.0958   0.1546  -0.1923   0.0004
  54 O   :3d1+  -0.0280   0.0063   0.0017   0.0077   0.0026  -0.0052   0.0000
  55 O   :2pz    0.0172   0.1542  -0.1059  -0.1168  -0.2006  -0.0020   0.2045
  56 O   :2pz    0.0097   0.1252  -0.0992  -0.1167  -0.2592   0.0100   0.2815

    Orbital        18       19       20       21       22       23
   1 Fe  :2pz   -0.0135   0.0423   0.0082   0.0469  -0.0471   0.0313
   2 Fe  :2pz   -0.2289   0.7083   0.1333   0.7609  -0.8025   0.5311
   3 Fe  :2pz   -1.8558   5.6907   0.6418   6.8108 -10.4394   2.5833
   4 Fe  :2pz    1.0978  -3.5034  -0.3120  -4.3507   7.0155  -0.4699
   5 Fe  :2pz    0.1549  -0.1036   0.0554  -1.0978   0.0212   0.4143
   6 Fe  :3d1-  -0.4217  -0.0181  -0.1275  -0.3094   0.1087  -0.0035
   7 Fe  :3d1+  -0.6243  -0.1100   0.0462  -0.3484   0.0672   0.0092
   8 Fe  :3d1-  -0.0085  -0.0144  -0.0713  -0.0470   0.0267   0.0324
   9 Fe  :3d1+  -0.0242  -0.0261   0.0509  -0.0682  -0.0146  -0.0518
  10 Fe  :3d1-   0.1323  -1.6244   1.4215   0.2576   0.7854   0.4364
  11 Fe  :3d1+   0.3103  -1.5104  -1.7826   0.4612   1.7193  -1.5200
  15 N   :2pz    0.2388   0.1407   0.2055  -0.0931   0.1265   0.0615
  16 N   :2pz    0.2632   0.3239   0.6593  -0.4333   0.0105   0.0974
  17 N   :3d1-  -0.0039  -0.0131   0.0177   0.0105   0.0136   0.0126
  18 N   :3d1+   0.0110   0.0102   0.0133   0.0087   0.0141  -0.0119
  19 C   :2pz    0.1543   0.1140  -0.1988  -0.0397   0.4005   0.5736
  20 C   :2pz    0.3046   0.1297  -0.9674  -0.2790   0.5922  -1.6532
  21 C   :3d1-  -0.0068   0.0085   0.0140   0.0256   0.0435   0.0161
  22 C   :3d1+  -0.0042  -0.0263  -0.0013   0.0157   0.0189   0.0319
  23 C   :1s    -0.0148   0.0659   0.0131  -0.0271  -0.0234   0.0647
  24 C   :1s    -0.1088   0.0564   0.0350  -0.1407   0.1105   0.0395
  25 C   :1s     0.0689  -2.1749  -0.1170   0.1775   3.3664  -1.8342
  26 C   :2px    0.0893   0.0434   0.1789  -0.1160   0.0092  -0.0694
  27 C   :2py    0.0188   0.0134  -0.1278  -0.0494   0.1508   0.4050
  28 C   :2pz    0.1223   0.0903   0.0223   0.0455   0.1395  -0.1405
  29 C   :2px    0.3124  -0.5178   0.4458  -1.0418   0.0005   0.2015
  30 C   :2py    0.2741  -0.4835  -0.7516  -0.9758   0.1735  -1.0670
  31 C   :2pz   -0.1691   0.9650   0.3339   1.4110   0.2922   0.2139
  32 C   :3d2-   0.0114  -0.0210   0.0057   0.0244   0.0099   0.0465
  33 C   :3d1-  -0.0268   0.0089   0.0111  -0.0296  -0.0069  -0.0167
  34 C   :3d0    0.0157  -0.0009   0.0103   0.0348   0.0278   0.0246
  35 C   :3d1+  -0.0239   0.0101  -0.0111  -0.0267   0.0015  -0.0476
  36 C   :3d2+  -0.0042   0.0011  -0.0146   0.0033   0.0100  -0.0043
  37 O   :1s    -0.0098   0.0171   0.0072   0.0495   0.0130   0.0037
  38 O   :1s     0.0381  -0.0289  -0.0220  -0.0050  -0.0860   0.0536
  39 O   :1s     0.3070  -0.4799  -0.2936  -1.3136  -0.8502   0.0923
  40 O   :2px   -0.0360  -0.0204  -0.0353   0.0407  -0.0547   0.0415
  41 O   :2py    0.0083  -0.0109   0.0177   0.0258  -0.0567   0.1309
  42 O   :2pz   -0.1089  -0.0209  -0.0081   0.0205   0.0167  -0.1019
  43 O   :2px   -0.0428  -0.0384  -0.2025  -0.1096  -0.2441   0.0760
  44 O   :2py    0.0099  -0.0392   0.0964  -0.1556  -0.3082   0.1913
  45 O   :2pz   -0.1669   0.0043   0.0521   0.3375   0.3153  -0.1493
  47 O   :3d1-  -0.0021   0.0035   0.0105   0.0138   0.0009   0.0071
  48 O   :3d0   -0.0020  -0.0060  -0.0034  -0.0067  -0.0105  -0.0104
  49 O   :3d1+  -0.0034   0.0024  -0.0047   0.0163   0.0071   0.0178
  50 O   :3d2+   0.0008   0.0007   0.0029  -0.0006  -0.0018  -0.0105
  51 O   :2pz   -0.1528  -0.0262   0.0130   0.0208  -0.0730   0.0687
  52 O   :2pz   -0.1908  -0.0640  -0.1428   0.1141  -0.0675  -0.0110
  55 O   :2pz   -0.0943  -0.0399   0.0225   0.0651  -0.0815   0.1277
  56 O   :2pz   -0.1494  -0.0640   0.2191   0.0685  -0.2180   0.1826
  57 O   :3d1-  -0.0043  -0.0049   0.0079   0.0033  -0.0164  -0.0183
  58 O   :3d1+   0.0027  -0.0030  -0.0055   0.0019   0.0152   0.0074

 "NEWORB " orbitals punched.


  Total CPU  time used in SIRIUS :  16.27 seconds
  Total wall time used in SIRIUS :  16.32 seconds

 
     Date and time (Linux)  : Tue Jun  4 11:23:21 2019
     Host name              : s73p20.deic.sdu.dk                      


                     .---------------------------------------.
                     | End of Wave Function Section (SIRIUS) |
                     `---------------------------------------'

  Total CPU  time used in DALTON:  16.79 seconds
  Total wall time used in DALTON:  16.93 seconds

 
     Date and time (Linux)  : Tue Jun  4 11:23:21 2019
     Host name              : s73p20.deic.sdu.dk                      
