

     ************************************************************************
     *************** Dalton - An Electronic Structure Program ***************
     ************************************************************************

    This is output from DALTON release Dalton2020.0.beta (2020)
         ( Web site: http://daltonprogram.org )

   ----------------------------------------------------------------------------

    NOTE:
     
    Dalton is an experimental code for the evaluation of molecular
    properties using (MC)SCF, DFT, CI, and CC wave functions.
    The authors accept no responsibility for the performance of
    the code or for the correctness of the results.
     
    The code (in whole or part) is provided under a licence and
    is not to be reproduced for further distribution without
    the written permission of the authors or their representatives.
     
    See the home page "http://daltonprogram.org" for further information.
     
    If results obtained with this code are published,
    the appropriate citations would be both of:
     
       K. Aidas, C. Angeli, K. L. Bak, V. Bakken, R. Bast,
       L. Boman, O. Christiansen, R. Cimiraglia, S. Coriani,
       P. Dahle, E. K. Dalskov, U. Ekstroem,
       T. Enevoldsen, J. J. Eriksen, P. Ettenhuber, B. Fernandez,
       L. Ferrighi, H. Fliegl, L. Frediani, K. Hald, A. Halkier,
       C. Haettig, H. Heiberg, T. Helgaker, A. C. Hennum,
       H. Hettema, E. Hjertenaes, S. Hoest, I.-M. Hoeyvik,
       M. F. Iozzi, B. Jansik, H. J. Aa. Jensen, D. Jonsson,
       P. Joergensen, J. Kauczor, S. Kirpekar,
       T. Kjaergaard, W. Klopper, S. Knecht, R. Kobayashi, H. Koch,
       J. Kongsted, A. Krapp, K. Kristensen, A. Ligabue,
       O. B. Lutnaes, J. I. Melo, K. V. Mikkelsen, R. H. Myhre,
       C. Neiss, C. B. Nielsen, P. Norman, J. Olsen,
       J. M. H. Olsen, A. Osted, M. J. Packer, F. Pawlowski,
       T. B. Pedersen, P. F. Provasi, S. Reine, Z. Rinkevicius,
       T. A. Ruden, K. Ruud, V. Rybkin, P. Salek, C. C. M. Samson,
       A. Sanchez de Meras, T. Saue, S. P. A. Sauer,
       B. Schimmelpfennig, K. Sneskov, A. H. Steindal,
       K. O. Sylvester-Hvid, P. R. Taylor, A. M. Teale,
       E. I. Tellgren, D. P. Tew, A. J. Thorvaldsen, L. Thoegersen,
       O. Vahtras, M. A. Watson, D. J. D. Wilson, M. Ziolkowski
       and H. Agren,
       "The Dalton quantum chemistry program system",
       WIREs Comput. Mol. Sci. 2014, 4:269–284 (doi: 10.1002/wcms.1172)
     
    and
     
       Dalton, a molecular electronic structure program,
       Release Dalton2020.0.beta (2020), see http://daltonprogram.org
   ----------------------------------------------------------------------------

    Authors in alphabetical order (major contribution(s) in parenthesis):

  Kestutis Aidas,           Vilnius University,           Lithuania   (QM/MM)
  Celestino Angeli,         University of Ferrara,        Italy       (NEVPT2)
  Keld L. Bak,              UNI-C,                        Denmark     (AOSOPPA, non-adiabatic coupling, magnetic properties)
  Vebjoern Bakken,          University of Oslo,           Norway      (DALTON; geometry optimizer, symmetry detection)
  Radovan Bast,             UiT The Arctic U. of Norway,  Norway      (DALTON installation and execution frameworks)
  Pablo Baudin,             University of Valencia,       Spain       (Cholesky excitation energies)
  Linus Boman,              NTNU,                         Norway      (Cholesky decomposition and subsystems)
  Ove Christiansen,         Aarhus University,            Denmark     (CC module)
  Renzo Cimiraglia,         University of Ferrara,        Italy       (NEVPT2)
  Sonia Coriani,            Technical Univ. of Denmark,   Denmark     (CC module, MCD in RESPONS)
  Janusz Cukras,            University of Trieste,        Italy       (MChD in RESPONS)
  Paal Dahle,               University of Oslo,           Norway      (Parallelization)
  Erik K. Dalskov,          UNI-C,                        Denmark     (SOPPA)
  Thomas Enevoldsen,        Univ. of Southern Denmark,    Denmark     (SOPPA)
  Janus J. Eriksen,         Aarhus University,            Denmark     (Polarizable embedding model, TDA)
  Rasmus Faber,             University of Copenhagen,     Denmark     (Vib.avg. NMR with SOPPA, parallel AO-SOPPA)
  Tobias Fahleson,          KTH Stockholm,                Sweden      (Damped cubic response)
  Berta Fernandez,          U. of Santiago de Compostela, Spain       (doublet spin, ESR in RESPONS)
  Lara Ferrighi,            Aarhus University,            Denmark     (PCM Cubic response)
  Heike Fliegl,             University of Oslo,           Norway      (CCSD(R12))
  Luca Frediani,            UiT The Arctic U. of Norway,  Norway      (PCM)
  Bin Gao,                  UiT The Arctic U. of Norway,  Norway      (Gen1Int library)
  Christof Haettig,         Ruhr-University Bochum,       Germany     (CC module)
  Kasper Hald,              Aarhus University,            Denmark     (CC module)
  Asger Halkier,            Aarhus University,            Denmark     (CC module)
  Frederik Beyer Hansen,    University of Copenhagen,     Denmark     (Parallel AO-SOPPA)
  Erik D. Hedegaard,        Univ. of Southern Denmark,    Denmark     (Polarizable embedding model, QM/MM)
  Hanne Heiberg,            University of Oslo,           Norway      (geometry analysis, selected one-electron integrals)
  Trygve Helgaker,          University of Oslo,           Norway      (DALTON; ABACUS, ERI, DFT modules, London, and much more)
  Alf Christian Hennum,     University of Oslo,           Norway      (Parity violation)
  Hinne Hettema,            University of Auckland,       New Zealand (quadratic response in RESPONS; SIRIUS supersymmetry)
  Eirik Hjertenaes,         NTNU,                         Norway      (Cholesky decomposition)
  Pi A. B. Haase,           University of Copenhagen,     Denmark     (Triplet AO-SOPPA)
  Maria Francesca Iozzi,    University of Oslo,           Norway      (RPA)
  Christoph Jacob           TU Braunschweig               Germany     (Frozen density embedding model)
  Brano Jansik              Technical Univ. of Ostrava    Czech Rep.  (DFT cubic response)
  Hans Joergen Aa. Jensen,  Univ. of Southern Denmark,    Denmark     (DALTON; SIRIUS, RESPONS, ABACUS modules, London, and much more)
  Dan Jonsson,              UiT The Arctic U. of Norway,  Norway      (cubic response in RESPONS module)
  Poul Joergensen,          Aarhus University,            Denmark     (RESPONS, ABACUS, and CC modules)
  Maciej Kaminski,          University of Warsaw,         Poland      (CPPh in RESPONS)
  Joanna Kauczor,           Linkoeping University,        Sweden      (Complex polarization propagator (CPP) module)
  Sheela Kirpekar,          Univ. of Southern Denmark,    Denmark     (Mass-velocity & Darwin integrals)
  Wim Klopper,              KIT Karlsruhe,                Germany     (R12 code in CC, SIRIUS, and ABACUS modules)
  Stefan Knecht,            ETH Zurich,                   Switzerland (Parallel CI and MCSCF)
  Rika Kobayashi,           Australian National Univ.,    Australia   (DIIS in CC, London in MCSCF)
  Henrik Koch,              NTNU,                         Norway      (CC module, Cholesky decomposition)
  Jacob Kongsted,           Univ. of Southern Denmark,    Denmark     (Polarizable embedding model, QM/MM)
  Andrea Ligabue,           University of Modena,         Italy       (CTOCD, AOSOPPA)
  Nanna H. List             Univ. of Southern Denmark,    Denmark     (Polarizable embedding model)
  Ola B. Lutnaes,           University of Oslo,           Norway      (DFT Hessian)
  Juan I. Melo,             University of Buenos Aires,   Argentina   (LRESC, Relativistic Effects on NMR Shieldings)
  Kurt V. Mikkelsen,        University of Copenhagen,     Denmark     (MC-SCRF and QM/MM)
  Rolf H. Myhre,            NTNU,                         Norway      (Subsystems and CC3)
  Christian Neiss,          Univ. Erlangen-Nuernberg,     Germany     (CCSD(R12))
  Christian B. Nielsen,     University of Copenhagen,     Denmark     (QM/MM)
  Patrick Norman,           KTH Stockholm,                Sweden      (Cubic response and complex frequency response in RESPONS)
  Jeppe Olsen,              Aarhus University,            Denmark     (SIRIUS CI/density modules)
  Jogvan Magnus H. Olsen,   Univ. of Southern Denmark,    Denmark     (Polarizable embedding model, QM/MM)
  Anders Osted,             Copenhagen University,        Denmark     (QM/MM)
  Martin J. Packer,         University of Sheffield,      UK          (SOPPA)
  Filip Pawlowski,          Kazimierz Wielki University,  Poland      (CC3)
  Morten N. Pedersen,       Univ. of Southern Denmark,    Denmark     (Polarizable embedding model)
  Thomas B. Pedersen,       University of Oslo,           Norway      (Cholesky decomposition)
  Patricio F. Provasi,      University of Northeastern,   Argentina   (Analysis of coupling constants in localized orbitals)
  Zilvinas Rinkevicius,     KTH Stockholm,                Sweden      (open-shell DFT, ESR)
  Elias Rudberg,            KTH Stockholm,                Sweden      (DFT grid and basis info)
  Torgeir A. Ruden,         University of Oslo,           Norway      (Numerical derivatives in ABACUS)
  Kenneth Ruud,             UiT The Arctic U. of Norway,  Norway      (DALTON; ABACUS magnetic properties and much more)
  Pawel Salek,              KTH Stockholm,                Sweden      (DALTON; DFT code)
  Claire C. M. Samson       University of Karlsruhe       Germany     (Boys localization, r12 integrals in ERI)
  Alfredo Sanchez de Meras, University of Valencia,       Spain       (CC module, Cholesky decomposition)
  Trond Saue,               Paul Sabatier University,     France      (direct Fock matrix construction)
  Stephan P. A. Sauer,      University of Copenhagen,     Denmark     (SOPPA(CCSD), SOPPA prop., AOSOPPA, vibrational g-factors)
  Andre S. P. Gomes,        CNRS/Universite de Lille,     France      (Frozen density embedding model)
  Bernd Schimmelpfennig,    Forschungszentrum Karlsruhe,  Germany     (AMFI module)
  Anna K. Schnack-Petersen, University of Copenhagen,     Denmark     (RPA(D) and HRPA(D) properties in AOSOPPA)
  Kristian Sneskov,         Aarhus University,            Denmark     (Polarizable embedding model, QM/MM)
  Arnfinn H. Steindal,      UiT The Arctic U. of Norway,  Norway      (parallel QM/MM, Polarizable embedding model)
  Casper Steinmann,         Univ. of Southern Denmark,    Denmark     (QFIT, Polarizable embedding model)
  K. O. Sylvester-Hvid,     University of Copenhagen,     Denmark     (MC-SCRF)
  Peter R. Taylor,          VLSCI/Univ. of Melbourne,     Australia   (Symmetry handling ABACUS, integral transformation)
  Andrew M. Teale,          University of Nottingham,     England     (DFT-AC, DFT-D)
  David P. Tew,             University of Bristol,        England     (CCSD(R12))
  Olav Vahtras,             KTH Stockholm,                Sweden      (triplet response, spin-orbit, ESR, TDDFT, open-shell DFT)
  Lucas Visscher,           Vrije Universiteit Amsterdam, Netherlands (Frozen density embedding model)
  David J. Wilson,          La Trobe University,          Australia   (DFT Hessian and DFT magnetizabilities)
  Hans Agren,               KTH Stockholm,                Sweden      (SIRIUS module, RESPONS, MC-SCRF solvation model)
 --------------------------------------------------------------------------------

     Date and time (Linux)  : Sun May 16 13:25:10 2021
     Host name              : ADM-124261                              

 * Work memory size             :    64000000 =  488.28 megabytes.

 * Directories for basis set searches:
   1) /mnt/c/Users/kjellgren/Desktop/calc
   2) /home/kjellgren/dalton/build/basis


Compilation information
-----------------------

 Who compiled             | kjellgren
 Host                     | ADM-124261
 System                   | Linux-4.4.0-19041-Microsoft
 CMake generator          | Unix Makefiles
 Processor                | x86_64
 64-bit integers          | OFF
 MPI                      | ON
 Fortran compiler         | /usr/bin/mpif90
 Fortran compiler version | unknown
 C compiler               | /usr/bin/mpicc
 C compiler version       | unknown
 C++ compiler             | /usr/bin/mpicxx
 C++ compiler version     | unknown
 BLAS                     | /usr/lib/x86_64-linux-gnu/libblas.so
 LAPACK                   | /usr/lib/x86_64-linux-gnu/liblapack.so
 Static linking           | OFF
 Last Git revision        | 630237c9b4c22c9f940e557785d488d357dba04e
 Git branch               | keyword_for_not_checking_atomdist
 Configuration time       | 2021-05-15 13:32:56.071224

 * Sequential calculation.


   Content of the .dal input file
 ----------------------------------

**DALTON INPUT
.INTEGRALS
*MOLBAS
.PRINT
 10
**END OF DALTON INPUT


   Content of the .mol file
 ----------------------------

ATOMBASIS
 Title
 Generated by the Dalton Input File Plugin for Avogadro
Atomtypes=5 Charge=-1
Charge=26.0 Atoms=1 Basis=cc-pVDZ-DK
Fe         0.00092        0.00000        0.37789
Charge=7.0 Atoms=1 Basis=cc-pVDZ-DK
N          0.00062        0.00000        3.51545
Charge=6.0 Atoms=3 Basis=cc-pVDZ-DK
C          2.99855        0.00000       -1.12906
C         -1.49900       -2.59520       -1.12928
C         -1.49900        2.59520       -1.12928
Charge=8.0 Atoms=4 Basis=cc-pVDZ-DK
O         -2.50142       -4.32842       -2.08667
O         -2.50142        4.32842       -2.08667
O         -0.00024        0.00000        5.77447
O          5.00100        0.00000       -2.08599
Charge=76.0 Atoms=1 Basis=MINAO
Fe00       0.00092        0.00000        0.37789


       *******************************************************************
       *********** Output from DALTON general input processing ***********
       *******************************************************************

 --------------------------------------------------------------------------------
   Overall default print level:    0
   Print level for DALTON.STAT:    1

    HERMIT 1- and 2-electron integral sections will be executed
    "Old" integral transformation used (limited to max 255 basis functions)
 --------------------------------------------------------------------------------

@ * Nuclear model: Point charge.


 Changes of defaults for *MOLBAS
 -------------------------------

 Print level in molecule setup (READIN):   10



   ****************************************************************************
   *************** Output of molecule and basis set information ***************
   ****************************************************************************


    The two title cards from your ".mol" input:
    ------------------------------------------------------------------------
 1:  Title                                                                  
 2:  Generated by the Dalton Input File Plugin for Avogadro                 
    ------------------------------------------------------------------------

  Calculation of transformation matrices for spherical GTOs.


                            **************************
                            *** Output from SPHCOM ***
                            **************************

      LVAL      2
      NLM       5
      NXYZ      6
      MINTEG    2


                              +---------------------+
                              ! Legendre polynomial !
                              +---------------------+


               Column   1     Column   2     Column   3
       1      -0.50000000     0.00000000     1.50000000
    ==== End of matrix output ====


                            +-------------------------+
                            ! Cosine and sine factors !
                            +-------------------------+


               Column   1     Column   2     Column   3
       1       1.00000000     0.00000000     0.00000000
       2       1.00000000     1.00000000     0.00000000
       3       1.00000000     2.00000000    -1.00000000
    ==== End of matrix output ====


                  +----------------------------------------------+
                  ! Cartesian to spherical transformation matrix !
                  +----------------------------------------------+

                              Moment order: 2

               Column   1     Column   2     Column   3     Column   4     Column   5
       1       0.00000000     0.00000000    -0.28867513     0.00000000     0.50000000
       2       1.00000000     0.00000000     0.00000000     0.00000000     0.00000000
       3       0.00000000     0.00000000     0.00000000     1.00000000     0.00000000
       4       0.00000000     0.00000000    -0.28867513     0.00000000    -0.50000000
       5       0.00000000     1.00000000     0.00000000     0.00000000     0.00000000
       6       0.00000000     0.00000000     0.57735027     0.00000000     0.00000000
    ==== End of matrix output ====


                            **************************
                            *** Output from SPHCOM ***
                            **************************

      LVAL      3
      NLM       7
      NXYZ     10
      MINTEG    2


                              +---------------------+
                              ! Legendre polynomial !
                              +---------------------+


               Column   1     Column   2     Column   3     Column   4
       1       0.00000000    -1.50000000     0.00000000     2.50000000
    ==== End of matrix output ====


                            +-------------------------+
                            ! Cosine and sine factors !
                            +-------------------------+


               Column   1     Column   2     Column   3     Column   4
       1       1.00000000     0.00000000     0.00000000     0.00000000
       2       1.00000000     1.00000000     0.00000000     0.00000000
       3       1.00000000     2.00000000    -1.00000000     0.00000000
       4       1.00000000     3.00000000    -3.00000000    -1.00000000
    ==== End of matrix output ====


                  +----------------------------------------------+
                  ! Cartesian to spherical transformation matrix !
                  +----------------------------------------------+

                              Moment order: 3

               Column   1     Column   2     Column   3     Column   4     Column   5
       1       0.00000000     0.00000000     0.00000000     0.00000000    -0.15811388
       2       0.61237244     0.00000000    -0.15811388     0.00000000     0.00000000
       3       0.00000000     0.00000000     0.00000000    -0.38729833     0.00000000
       4       0.00000000     0.00000000     0.00000000     0.00000000    -0.15811388
       5       0.00000000     1.00000000     0.00000000     0.00000000     0.00000000
       6       0.00000000     0.00000000     0.00000000     0.00000000     0.63245553
       7      -0.20412415     0.00000000    -0.15811388     0.00000000     0.00000000
       8       0.00000000     0.00000000     0.00000000    -0.38729833     0.00000000
       9       0.00000000     0.00000000     0.63245553     0.00000000     0.00000000
      10       0.00000000     0.00000000     0.00000000     0.25819889     0.00000000

               Column   6     Column   7
       1       0.00000000     0.20412415
       3       0.50000000     0.00000000
       4       0.00000000    -0.61237244
       8      -0.50000000     0.00000000
    ==== End of matrix output ====


                            **************************
                            *** Output from SPHCOM ***
                            **************************

      LVAL      4
      NLM       9
      NXYZ     15
      MINTEG    2


                              +---------------------+
                              ! Legendre polynomial !
                              +---------------------+


               Column   1     Column   2     Column   3     Column   4     Column   5
       1       0.37500000     0.00000000    -3.75000000     0.00000000     4.37500000
    ==== End of matrix output ====


                            +-------------------------+
                            ! Cosine and sine factors !
                            +-------------------------+


               Column   1     Column   2     Column   3     Column   4     Column   5
       1       1.00000000     0.00000000     0.00000000     0.00000000     0.00000000
       2       1.00000000     1.00000000     0.00000000     0.00000000     0.00000000
       3       1.00000000     2.00000000    -1.00000000     0.00000000     0.00000000
       4       1.00000000     3.00000000    -3.00000000    -1.00000000     0.00000000
       5       1.00000000     4.00000000    -6.00000000    -4.00000000     1.00000000
    ==== End of matrix output ====


                  +----------------------------------------------+
                  ! Cartesian to spherical transformation matrix !
                  +----------------------------------------------+

                              Moment order: 4

               Column   1     Column   2     Column   3     Column   4     Column   5
       1       0.00000000     0.00000000     0.00000000     0.00000000     0.03659625
       2       0.28867513     0.00000000    -0.10910895     0.00000000     0.00000000
       4       0.00000000     0.00000000     0.00000000     0.00000000     0.07319251
       5       0.00000000     0.61237244     0.00000000    -0.23145502     0.00000000
       6       0.00000000     0.00000000     0.00000000     0.00000000    -0.29277002
       7      -0.28867513     0.00000000    -0.10910895     0.00000000     0.00000000
       9       0.00000000     0.00000000     0.65465367     0.00000000     0.00000000
      11       0.00000000     0.00000000     0.00000000     0.00000000     0.03659625
      12       0.00000000    -0.20412415     0.00000000    -0.23145502     0.00000000
      13       0.00000000     0.00000000     0.00000000     0.00000000    -0.29277002
      14       0.00000000     0.00000000     0.00000000     0.30860670     0.00000000
      15       0.00000000     0.00000000     0.00000000     0.00000000     0.09759001

               Column   6     Column   7     Column   8     Column   9
       1       0.00000000    -0.05455447     0.00000000     0.07216878
       3      -0.23145502     0.00000000     0.20412415     0.00000000
       4       0.00000000     0.00000000     0.00000000    -0.43301270
       6       0.00000000     0.32732684     0.00000000     0.00000000
       8      -0.23145502     0.00000000    -0.61237244     0.00000000
      10       0.30860670     0.00000000     0.00000000     0.00000000
      11       0.00000000     0.05455447     0.00000000     0.07216878
      13       0.00000000    -0.32732684     0.00000000     0.00000000
    ==== End of matrix output ====


                            **************************
                            *** Output from SPHCOM ***
                            **************************

      LVAL      5
      NLM      11
      NXYZ     21
      MINTEG    2


                              +---------------------+
                              ! Legendre polynomial !
                              +---------------------+


               Column   1     Column   2     Column   3     Column   4     Column   5
       1       0.00000000     1.87500000     0.00000000    -8.75000000     0.00000000

               Column   6
       1       7.87500000
    ==== End of matrix output ====


                            +-------------------------+
                            ! Cosine and sine factors !
                            +-------------------------+


               Column   1     Column   2     Column   3     Column   4     Column   5
       1       1.00000000     0.00000000     0.00000000     0.00000000     0.00000000
       2       1.00000000     1.00000000     0.00000000     0.00000000     0.00000000
       3       1.00000000     2.00000000    -1.00000000     0.00000000     0.00000000
       4       1.00000000     3.00000000    -3.00000000    -1.00000000     0.00000000
       5       1.00000000     4.00000000    -6.00000000    -4.00000000     1.00000000
       6       1.00000000     5.00000000   -10.00000000   -10.00000000     5.00000000

               Column   6
       6       1.00000000
    ==== End of matrix output ====


                  +----------------------------------------------+
                  ! Cartesian to spherical transformation matrix !
                  +----------------------------------------------+

                              Moment order: 5

               Column   1     Column   2     Column   3     Column   4     Column   5
       2       0.11410887     0.00000000    -0.05103104     0.00000000     0.01574852
       5       0.00000000     0.28867513     0.00000000    -0.16666667     0.00000000
       7      -0.22821773     0.00000000    -0.03402069     0.00000000     0.03149704
       9       0.00000000     0.00000000     0.40824829     0.00000000    -0.18898224
      12       0.00000000    -0.28867513     0.00000000    -0.16666667     0.00000000
      14       0.00000000     0.00000000     0.00000000     0.33333333     0.00000000
      16       0.02282177     0.00000000     0.01701035     0.00000000     0.01574852
      18       0.00000000     0.00000000    -0.13608276     0.00000000    -0.18898224
      20       0.00000000     0.00000000     0.00000000     0.00000000     0.12598816

               Column   6     Column   7     Column   8     Column   9     Column  10
       1       0.00000000     0.01574852     0.00000000    -0.01701035     0.00000000
       3       0.06099375     0.00000000    -0.08333333     0.00000000     0.07216878
       4       0.00000000     0.03149704     0.00000000     0.03402069     0.00000000
       6       0.00000000    -0.18898224     0.00000000     0.13608276     0.00000000
       8       0.12198751     0.00000000     0.00000000     0.00000000    -0.43301270
      10      -0.16265001     0.00000000     0.16666667     0.00000000     0.00000000
      11       0.00000000     0.01574852     0.00000000     0.05103104     0.00000000
      13       0.00000000    -0.18898224     0.00000000    -0.40824829     0.00000000
      15       0.00000000     0.12598816     0.00000000     0.00000000     0.00000000
      17       0.06099375     0.00000000     0.08333333     0.00000000     0.07216878
      19      -0.16265001     0.00000000    -0.16666667     0.00000000     0.00000000
      21       0.03253000     0.00000000     0.00000000     0.00000000     0.00000000

               Column  11
       1       0.02282177
       4      -0.22821773
      11       0.11410887
    ==== End of matrix output ====


                            **************************
                            *** Output from SPHCOM ***
                            **************************

      LVAL      6
      NLM      13
      NXYZ     28
      MINTEG    2


                              +---------------------+
                              ! Legendre polynomial !
                              +---------------------+


               Column   1     Column   2     Column   3     Column   4     Column   5
       1      -0.31250000     0.00000000     6.56250000     0.00000000   -19.68750000

               Column   6     Column   7
       1       0.00000000    14.43750000
    ==== End of matrix output ====


                            +-------------------------+
                            ! Cosine and sine factors !
                            +-------------------------+


               Column   1     Column   2     Column   3     Column   4     Column   5
       1       1.00000000     0.00000000     0.00000000     0.00000000     0.00000000
       2       1.00000000     1.00000000     0.00000000     0.00000000     0.00000000
       3       1.00000000     2.00000000    -1.00000000     0.00000000     0.00000000
       4       1.00000000     3.00000000    -3.00000000    -1.00000000     0.00000000
       5       1.00000000     4.00000000    -6.00000000    -4.00000000     1.00000000
       6       1.00000000     5.00000000   -10.00000000   -10.00000000     5.00000000
       7       1.00000000     6.00000000   -15.00000000   -20.00000000    15.00000000

               Column   6     Column   7
       6       1.00000000     0.00000000
       7       6.00000000    -1.00000000
    ==== End of matrix output ====


                  +----------------------------------------------+
                  ! Cartesian to spherical transformation matrix !
                  +----------------------------------------------+

                              Moment order: 6

               Column   1     Column   2     Column   3     Column   4     Column   5
       2       0.03952847     0.00000000    -0.01946247     0.00000000     0.00888336
       5       0.00000000     0.11410887     0.00000000    -0.07995027     0.00000000
       7      -0.13176157     0.00000000     0.00000000     0.00000000     0.01776673
       9       0.00000000     0.00000000     0.19462474     0.00000000    -0.14213381
      12       0.00000000    -0.22821773     0.00000000    -0.05330018     0.00000000
      14       0.00000000     0.00000000     0.00000000     0.21320072     0.00000000
      16       0.03952847     0.00000000     0.01946247     0.00000000     0.00888336
      18       0.00000000     0.00000000    -0.19462474     0.00000000    -0.14213381
      20       0.00000000     0.00000000     0.00000000     0.00000000     0.14213381
      23       0.00000000     0.02282177     0.00000000     0.02665009     0.00000000
      25       0.00000000     0.00000000     0.00000000    -0.07106691     0.00000000

               Column   6     Column   7     Column   8     Column   9     Column  10
       1       0.00000000    -0.00306505     0.00000000     0.00444168     0.00000000
       3       0.00000000     0.00000000     0.02809166     0.00000000    -0.02665009
       4       0.00000000    -0.00919515     0.00000000     0.00444168     0.00000000
       5       0.02809166     0.00000000     0.00000000     0.00000000     0.00000000
       6       0.00000000     0.05517093     0.00000000    -0.07106691     0.00000000
       8       0.00000000     0.00000000     0.05618332     0.00000000     0.05330018
      10       0.00000000     0.00000000    -0.11236664     0.00000000     0.07106691
      11       0.00000000    -0.00919515     0.00000000    -0.00444168     0.00000000
      12       0.05618332     0.00000000     0.00000000     0.00000000     0.00000000
      13       0.00000000     0.11034185     0.00000000     0.00000000     0.00000000
      14      -0.11236664     0.00000000     0.00000000     0.00000000     0.00000000
      15       0.00000000    -0.07356124     0.00000000     0.07106691     0.00000000
      17       0.00000000     0.00000000     0.02809166     0.00000000     0.07995027
      19       0.00000000     0.00000000    -0.11236664     0.00000000    -0.21320072
      21       0.00000000     0.00000000     0.04494666     0.00000000     0.00000000
      22       0.00000000    -0.00306505     0.00000000    -0.00444168     0.00000000
      23       0.02809166     0.00000000     0.00000000     0.00000000     0.00000000
      24       0.00000000     0.05517093     0.00000000     0.07106691     0.00000000
      25      -0.11236664     0.00000000     0.00000000     0.00000000     0.00000000
      26       0.00000000    -0.07356124     0.00000000    -0.07106691     0.00000000
      27       0.04494666     0.00000000     0.00000000     0.00000000     0.00000000
      28       0.00000000     0.00980816     0.00000000     0.00000000     0.00000000

               Column  11     Column  12     Column  13
       1      -0.00486562     0.00000000     0.00658808
       3       0.00000000     0.02282177     0.00000000
       4       0.02432809     0.00000000    -0.09882118
       6       0.04865618     0.00000000     0.00000000
       8       0.00000000    -0.22821773     0.00000000
      11       0.02432809     0.00000000     0.09882118
      13      -0.29193710     0.00000000     0.00000000
      17       0.00000000     0.11410887     0.00000000
      22      -0.00486562     0.00000000    -0.00658808
      24       0.04865618     0.00000000     0.00000000
    ==== End of matrix output ====


                            **************************
                            *** Output from SPHCOM ***
                            **************************

      LVAL      7
      NLM      15
      NXYZ     36
      MINTEG    2


                              +---------------------+
                              ! Legendre polynomial !
                              +---------------------+


               Column   1     Column   2     Column   3     Column   4     Column   5
       1       0.00000000    -2.18750000     0.00000000    19.68750000     0.00000000

               Column   6     Column   7     Column   8
       1     -43.31250000     0.00000000    26.81250000
    ==== End of matrix output ====


                            +-------------------------+
                            ! Cosine and sine factors !
                            +-------------------------+


               Column   1     Column   2     Column   3     Column   4     Column   5
       1       1.00000000     0.00000000     0.00000000     0.00000000     0.00000000
       2       1.00000000     1.00000000     0.00000000     0.00000000     0.00000000
       3       1.00000000     2.00000000    -1.00000000     0.00000000     0.00000000
       4       1.00000000     3.00000000    -3.00000000    -1.00000000     0.00000000
       5       1.00000000     4.00000000    -6.00000000    -4.00000000     1.00000000
       6       1.00000000     5.00000000   -10.00000000   -10.00000000     5.00000000
       7       1.00000000     6.00000000   -15.00000000   -20.00000000    15.00000000
       8       1.00000000     7.00000000   -21.00000000   -35.00000000    35.00000000

               Column   6     Column   7     Column   8
       6       1.00000000     0.00000000     0.00000000
       7       6.00000000    -1.00000000     0.00000000
       8      21.00000000    -7.00000000    -1.00000000
    ==== End of matrix output ====


                  +----------------------------------------------+
                  ! Cartesian to spherical transformation matrix !
                  +----------------------------------------------+

                              Moment order: 7

               Column   1     Column   2     Column   3     Column   4     Column   5
       2       0.01232517     0.00000000    -0.00646014     0.00000000     0.00350605
       5       0.00000000     0.03952847     0.00000000    -0.03100868     0.00000000
       7      -0.06162583     0.00000000     0.00646014     0.00000000     0.00584342
       9       0.00000000     0.00000000     0.07752171     0.00000000    -0.07012102
      12       0.00000000    -0.13176157     0.00000000     0.00000000     0.00000000
      14       0.00000000     0.00000000     0.00000000     0.10336228     0.00000000
      16       0.03697550     0.00000000     0.01162826     0.00000000     0.00116868
      18       0.00000000     0.00000000    -0.15504342     0.00000000    -0.04674735
      20       0.00000000     0.00000000     0.00000000     0.00000000     0.09349470
      23       0.00000000     0.03952847     0.00000000     0.03100868     0.00000000
      25       0.00000000     0.00000000     0.00000000    -0.10336228     0.00000000
      29      -0.00176074     0.00000000    -0.00129203     0.00000000    -0.00116868
      31       0.00000000     0.00000000     0.01550434     0.00000000     0.02337367
      33       0.00000000     0.00000000     0.00000000     0.00000000    -0.03116490

               Column   6     Column   7     Column   8     Column   9     Column  10
       1       0.00000000     0.00000000     0.00000000    -0.00112457     0.00000000
       2       0.00000000    -0.00112457     0.00000000     0.00000000     0.00000000
       3       0.00000000     0.00000000    -0.00595065     0.00000000     0.00826384
       4       0.00000000     0.00000000     0.00000000    -0.00337370     0.00000000
       5       0.01652768     0.00000000     0.00000000     0.00000000     0.00000000
       6       0.00000000     0.00000000     0.00000000     0.02698959     0.00000000
       7       0.00000000    -0.00337370     0.00000000     0.00000000     0.00000000
       8       0.00000000     0.00000000    -0.01785194     0.00000000     0.00826384
       9       0.00000000     0.02698959     0.00000000     0.00000000     0.00000000
      10       0.00000000     0.00000000     0.03570388     0.00000000    -0.04407382
      11       0.00000000     0.00000000     0.00000000    -0.00337370     0.00000000
      12       0.03305537     0.00000000     0.00000000     0.00000000     0.00000000
      13       0.00000000     0.00000000     0.00000000     0.05397919     0.00000000
      14      -0.08814765     0.00000000     0.00000000     0.00000000     0.00000000
      15       0.00000000     0.00000000     0.00000000    -0.05397919     0.00000000
      16       0.00000000    -0.00337370     0.00000000     0.00000000     0.00000000
      17       0.00000000     0.00000000    -0.01785194     0.00000000    -0.00826384
      18       0.00000000     0.05397919     0.00000000     0.00000000     0.00000000
      19       0.00000000     0.00000000     0.07140776     0.00000000     0.00000000
      20       0.00000000    -0.05397919     0.00000000     0.00000000     0.00000000
      21       0.00000000     0.00000000    -0.02856310     0.00000000     0.02644429
      22       0.00000000     0.00000000     0.00000000    -0.00112457     0.00000000
      23       0.01652768     0.00000000     0.00000000     0.00000000     0.00000000
      24       0.00000000     0.00000000     0.00000000     0.02698959     0.00000000
      25      -0.08814765     0.00000000     0.00000000     0.00000000     0.00000000
      26       0.00000000     0.00000000     0.00000000    -0.05397919     0.00000000
      27       0.05288859     0.00000000     0.00000000     0.00000000     0.00000000
      28       0.00000000     0.00000000     0.00000000     0.01439445     0.00000000
      29       0.00000000    -0.00112457     0.00000000     0.00000000     0.00000000
      30       0.00000000     0.00000000    -0.00595065     0.00000000    -0.00826384
      31       0.00000000     0.02698959     0.00000000     0.00000000     0.00000000
      32       0.00000000     0.00000000     0.03570388     0.00000000     0.04407382
      33       0.00000000    -0.05397919     0.00000000     0.00000000     0.00000000
      34       0.00000000     0.00000000    -0.02856310     0.00000000    -0.02644429
      35       0.00000000     0.01439445     0.00000000     0.00000000     0.00000000
      36       0.00000000     0.00000000     0.00272030     0.00000000     0.00000000

               Column  11     Column  12     Column  13     Column  14     Column  15
       1       0.00116868     0.00000000    -0.00129203     0.00000000     0.00176074
       3       0.00000000    -0.00775217     0.00000000     0.00658808     0.00000000
       4      -0.00116868     0.00000000     0.01162826     0.00000000    -0.03697550
       6      -0.02337367     0.00000000     0.01550434     0.00000000     0.00000000
       8       0.00000000     0.03876085     0.00000000    -0.09882118     0.00000000
      10       0.00000000     0.02584057     0.00000000     0.00000000     0.00000000
      11      -0.00584342     0.00000000     0.00646014     0.00000000     0.06162583
      13       0.04674735     0.00000000    -0.15504342     0.00000000     0.00000000
      15       0.03116490     0.00000000     0.00000000     0.00000000     0.00000000
      17       0.00000000     0.03876085     0.00000000     0.09882118     0.00000000
      19       0.00000000    -0.15504342     0.00000000     0.00000000     0.00000000
      22      -0.00350605     0.00000000    -0.00646014     0.00000000    -0.01232517
      24       0.07012102     0.00000000     0.07752171     0.00000000     0.00000000
      26      -0.09349470     0.00000000     0.00000000     0.00000000     0.00000000
      30       0.00000000    -0.00775217     0.00000000    -0.00658808     0.00000000
      32       0.00000000     0.02584057     0.00000000     0.00000000     0.00000000
    ==== End of matrix output ====


                        Cartesian transformation matrices
                        ---------------------------------

  to spherical harmonics


  Coefficients for angular quantum number     0
  to GTOs with labels:
     1s  

               Column   1
       1       1.00000000
    ==== End of matrix output ====

  Coefficients for angular quantum number     1
  to GTOs with labels:
     2px  2py  2pz 

               Column   1     Column   2     Column   3
       1       1.00000000     0.00000000     0.00000000
       2       0.00000000     1.00000000     0.00000000
       3       0.00000000     0.00000000     1.00000000
    ==== End of matrix output ====

  Coefficients for angular quantum number     2
  to GTOs with labels:
     3d2- 3d1- 3d0  3d1+ 3d2+

               Column   1     Column   2     Column   3     Column   4     Column   5
       1       0.00000000     1.00000000     0.00000000     0.00000000     0.00000000
       2       0.00000000     0.00000000     0.00000000     0.00000000     1.00000000
       3      -0.28867513     0.00000000     0.00000000    -0.28867513     0.00000000
       4       0.00000000     0.00000000     1.00000000     0.00000000     0.00000000
       5       0.50000000     0.00000000     0.00000000    -0.50000000     0.00000000

               Column   6
       3       0.57735027
    ==== End of matrix output ====

  Coefficients for angular quantum number     3
  to GTOs with labels:
     4f3- 4f2- 4f1- 4f0  4f1+ 4f2+ 4f3+

               Column   1     Column   2     Column   3     Column   4     Column   5
       1       0.00000000     0.61237244     0.00000000     0.00000000     0.00000000
       2       0.00000000     0.00000000     0.00000000     0.00000000     1.00000000
       3       0.00000000    -0.15811388     0.00000000     0.00000000     0.00000000
       4       0.00000000     0.00000000    -0.38729833     0.00000000     0.00000000
       5      -0.15811388     0.00000000     0.00000000    -0.15811388     0.00000000
       6       0.00000000     0.00000000     0.50000000     0.00000000     0.00000000
       7       0.20412415     0.00000000     0.00000000    -0.61237244     0.00000000

               Column   6     Column   7     Column   8     Column   9     Column  10
       1       0.00000000    -0.20412415     0.00000000     0.00000000     0.00000000
       3       0.00000000    -0.15811388     0.00000000     0.63245553     0.00000000
       4       0.00000000     0.00000000    -0.38729833     0.00000000     0.25819889
       5       0.63245553     0.00000000     0.00000000     0.00000000     0.00000000
       6       0.00000000     0.00000000    -0.50000000     0.00000000     0.00000000
    ==== End of matrix output ====

  Coefficients for angular quantum number     4
  to GTOs with labels:
     5g4- 5g3- 5g2- 5g1- 5g0  5g1+ 5g2+ 5g3+ 5g4+

               Column   1     Column   2     Column   3     Column   4     Column   5
       1       0.00000000     0.28867513     0.00000000     0.00000000     0.00000000
       2       0.00000000     0.00000000     0.00000000     0.00000000     0.61237244
       3       0.00000000    -0.10910895     0.00000000     0.00000000     0.00000000
       4       0.00000000     0.00000000     0.00000000     0.00000000    -0.23145502
       5       0.03659625     0.00000000     0.00000000     0.07319251     0.00000000
       6       0.00000000     0.00000000    -0.23145502     0.00000000     0.00000000
       7      -0.05455447     0.00000000     0.00000000     0.00000000     0.00000000
       8       0.00000000     0.00000000     0.20412415     0.00000000     0.00000000
       9       0.07216878     0.00000000     0.00000000    -0.43301270     0.00000000

               Column   6     Column   7     Column   8     Column   9     Column  10
       1       0.00000000    -0.28867513     0.00000000     0.00000000     0.00000000
       3       0.00000000    -0.10910895     0.00000000     0.65465367     0.00000000
       5      -0.29277002     0.00000000     0.00000000     0.00000000     0.00000000
       6       0.00000000     0.00000000    -0.23145502     0.00000000     0.30860670
       7       0.32732684     0.00000000     0.00000000     0.00000000     0.00000000
       8       0.00000000     0.00000000    -0.61237244     0.00000000     0.00000000

               Column  11     Column  12     Column  13     Column  14     Column  15
       2       0.00000000    -0.20412415     0.00000000     0.00000000     0.00000000
       4       0.00000000    -0.23145502     0.00000000     0.30860670     0.00000000
       5       0.03659625     0.00000000    -0.29277002     0.00000000     0.09759001
       7       0.05455447     0.00000000    -0.32732684     0.00000000     0.00000000
       9       0.07216878     0.00000000     0.00000000     0.00000000     0.00000000
    ==== End of matrix output ====

  Coefficients for angular quantum number     5
  to GTOs with labels:
     6h5- 6h4- 6h3- 6h2- 6h1- 6h0  6h1+ 6h2+ 6h3+ 6h4+ 6h5+

               Column   1     Column   2     Column   3     Column   4     Column   5
       1       0.00000000     0.11410887     0.00000000     0.00000000     0.00000000
       2       0.00000000     0.00000000     0.00000000     0.00000000     0.28867513
       3       0.00000000    -0.05103104     0.00000000     0.00000000     0.00000000
       4       0.00000000     0.00000000     0.00000000     0.00000000    -0.16666667
       5       0.00000000     0.01574852     0.00000000     0.00000000     0.00000000
       6       0.00000000     0.00000000     0.06099375     0.00000000     0.00000000
       7       0.01574852     0.00000000     0.00000000     0.03149704     0.00000000
       8       0.00000000     0.00000000    -0.08333333     0.00000000     0.00000000
       9      -0.01701035     0.00000000     0.00000000     0.03402069     0.00000000
      10       0.00000000     0.00000000     0.07216878     0.00000000     0.00000000
      11       0.02282177     0.00000000     0.00000000    -0.22821773     0.00000000

               Column   6     Column   7     Column   8     Column   9     Column  10
       1       0.00000000    -0.22821773     0.00000000     0.00000000     0.00000000
       3       0.00000000    -0.03402069     0.00000000     0.40824829     0.00000000
       5       0.00000000     0.03149704     0.00000000    -0.18898224     0.00000000
       6       0.00000000     0.00000000     0.12198751     0.00000000    -0.16265001
       7      -0.18898224     0.00000000     0.00000000     0.00000000     0.00000000
       8       0.00000000     0.00000000     0.00000000     0.00000000     0.16666667
       9       0.13608276     0.00000000     0.00000000     0.00000000     0.00000000
      10       0.00000000     0.00000000    -0.43301270     0.00000000     0.00000000

               Column  11     Column  12     Column  13     Column  14     Column  15
       2       0.00000000    -0.28867513     0.00000000     0.00000000     0.00000000
       4       0.00000000    -0.16666667     0.00000000     0.33333333     0.00000000
       7       0.01574852     0.00000000    -0.18898224     0.00000000     0.12598816
       9       0.05103104     0.00000000    -0.40824829     0.00000000     0.00000000
      11       0.11410887     0.00000000     0.00000000     0.00000000     0.00000000

               Column  16     Column  17     Column  18     Column  19     Column  20
       1       0.02282177     0.00000000     0.00000000     0.00000000     0.00000000
       3       0.01701035     0.00000000    -0.13608276     0.00000000     0.00000000
       5       0.01574852     0.00000000    -0.18898224     0.00000000     0.12598816
       6       0.00000000     0.06099375     0.00000000    -0.16265001     0.00000000
       8       0.00000000     0.08333333     0.00000000    -0.16666667     0.00000000
      10       0.00000000     0.07216878     0.00000000     0.00000000     0.00000000

               Column  21
       6       0.03253000
    ==== End of matrix output ====

  Coefficients for angular quantum number     6
  to GTOs with labels:
     7i6- 7i5- 7i4- 7i3- 7i2- 7i1- 7i0  7i1+ 7i2+ 7i3+ 7i4+ 7i5+ 7i6+

               Column   1     Column   2     Column   3     Column   4     Column   5
       1       0.00000000     0.03952847     0.00000000     0.00000000     0.00000000
       2       0.00000000     0.00000000     0.00000000     0.00000000     0.11410887
       3       0.00000000    -0.01946247     0.00000000     0.00000000     0.00000000
       4       0.00000000     0.00000000     0.00000000     0.00000000    -0.07995027
       5       0.00000000     0.00888336     0.00000000     0.00000000     0.00000000
       6       0.00000000     0.00000000     0.00000000     0.00000000     0.02809166
       7      -0.00306505     0.00000000     0.00000000    -0.00919515     0.00000000
       8       0.00000000     0.00000000     0.02809166     0.00000000     0.00000000
       9       0.00444168     0.00000000     0.00000000     0.00444168     0.00000000
      10       0.00000000     0.00000000    -0.02665009     0.00000000     0.00000000
      11      -0.00486562     0.00000000     0.00000000     0.02432809     0.00000000
      12       0.00000000     0.00000000     0.02282177     0.00000000     0.00000000
      13       0.00658808     0.00000000     0.00000000    -0.09882118     0.00000000

               Column   6     Column   7     Column   8     Column   9     Column  10
       1       0.00000000    -0.13176157     0.00000000     0.00000000     0.00000000
       3       0.00000000     0.00000000     0.00000000     0.19462474     0.00000000
       5       0.00000000     0.01776673     0.00000000    -0.14213381     0.00000000
       7       0.05517093     0.00000000     0.00000000     0.00000000     0.00000000
       8       0.00000000     0.00000000     0.05618332     0.00000000    -0.11236664
       9      -0.07106691     0.00000000     0.00000000     0.00000000     0.00000000
      10       0.00000000     0.00000000     0.05330018     0.00000000     0.07106691
      11       0.04865618     0.00000000     0.00000000     0.00000000     0.00000000
      12       0.00000000     0.00000000    -0.22821773     0.00000000     0.00000000

               Column  11     Column  12     Column  13     Column  14     Column  15
       2       0.00000000    -0.22821773     0.00000000     0.00000000     0.00000000
       4       0.00000000    -0.05330018     0.00000000     0.21320072     0.00000000
       6       0.00000000     0.05618332     0.00000000    -0.11236664     0.00000000
       7      -0.00919515     0.00000000     0.11034185     0.00000000    -0.07356124
       9      -0.00444168     0.00000000     0.00000000     0.00000000     0.07106691
      11       0.02432809     0.00000000    -0.29193710     0.00000000     0.00000000
      13       0.09882118     0.00000000     0.00000000     0.00000000     0.00000000

               Column  16     Column  17     Column  18     Column  19     Column  20
       1       0.03952847     0.00000000     0.00000000     0.00000000     0.00000000
       3       0.01946247     0.00000000    -0.19462474     0.00000000     0.00000000
       5       0.00888336     0.00000000    -0.14213381     0.00000000     0.14213381
       8       0.00000000     0.02809166     0.00000000    -0.11236664     0.00000000
      10       0.00000000     0.07995027     0.00000000    -0.21320072     0.00000000
      12       0.00000000     0.11410887     0.00000000     0.00000000     0.00000000

               Column  21     Column  22     Column  23     Column  24     Column  25
       2       0.00000000     0.00000000     0.02282177     0.00000000     0.00000000
       4       0.00000000     0.00000000     0.02665009     0.00000000    -0.07106691
       6       0.00000000     0.00000000     0.02809166     0.00000000    -0.11236664
       7       0.00000000    -0.00306505     0.00000000     0.05517093     0.00000000
       8       0.04494666     0.00000000     0.00000000     0.00000000     0.00000000
       9       0.00000000    -0.00444168     0.00000000     0.07106691     0.00000000
      11       0.00000000    -0.00486562     0.00000000     0.04865618     0.00000000
      13       0.00000000    -0.00658808     0.00000000     0.00000000     0.00000000

               Column  26     Column  27     Column  28
       6       0.00000000     0.04494666     0.00000000
       7      -0.07356124     0.00000000     0.00980816
       9      -0.07106691     0.00000000     0.00000000
    ==== End of matrix output ====

  Coefficients for angular quantum number     7
  to GTOs with labels:
     8k7- 8k6- 8k5- 8k4- 8k3- 8k2- 8k1- 8k0  8k1+ 8k2+ 8k3+ 8k4+ 8k5+ 8k6+ 8k7+

               Column   1     Column   2     Column   3     Column   4     Column   5
       1       0.00000000     0.01232517     0.00000000     0.00000000     0.00000000
       2       0.00000000     0.00000000     0.00000000     0.00000000     0.03952847
       3       0.00000000    -0.00646014     0.00000000     0.00000000     0.00000000
       4       0.00000000     0.00000000     0.00000000     0.00000000    -0.03100868
       5       0.00000000     0.00350605     0.00000000     0.00000000     0.00000000
       6       0.00000000     0.00000000     0.00000000     0.00000000     0.01652768
       7       0.00000000    -0.00112457     0.00000000     0.00000000     0.00000000
       8       0.00000000     0.00000000    -0.00595065     0.00000000     0.00000000
       9      -0.00112457     0.00000000     0.00000000    -0.00337370     0.00000000
      10       0.00000000     0.00000000     0.00826384     0.00000000     0.00000000
      11       0.00116868     0.00000000     0.00000000    -0.00116868     0.00000000
      12       0.00000000     0.00000000    -0.00775217     0.00000000     0.00000000
      13      -0.00129203     0.00000000     0.00000000     0.01162826     0.00000000
      14       0.00000000     0.00000000     0.00658808     0.00000000     0.00000000
      15       0.00176074     0.00000000     0.00000000    -0.03697550     0.00000000

               Column   6     Column   7     Column   8     Column   9     Column  10
       1       0.00000000    -0.06162583     0.00000000     0.00000000     0.00000000
       3       0.00000000     0.00646014     0.00000000     0.07752171     0.00000000
       5       0.00000000     0.00584342     0.00000000    -0.07012102     0.00000000
       7       0.00000000    -0.00337370     0.00000000     0.02698959     0.00000000
       8       0.00000000     0.00000000    -0.01785194     0.00000000     0.03570388
       9       0.02698959     0.00000000     0.00000000     0.00000000     0.00000000
      10       0.00000000     0.00000000     0.00826384     0.00000000    -0.04407382
      11      -0.02337367     0.00000000     0.00000000     0.00000000     0.00000000
      12       0.00000000     0.00000000     0.03876085     0.00000000     0.02584057
      13       0.01550434     0.00000000     0.00000000     0.00000000     0.00000000
      14       0.00000000     0.00000000    -0.09882118     0.00000000     0.00000000

               Column  11     Column  12     Column  13     Column  14     Column  15
       2       0.00000000    -0.13176157     0.00000000     0.00000000     0.00000000
       4       0.00000000     0.00000000     0.00000000     0.10336228     0.00000000
       6       0.00000000     0.03305537     0.00000000    -0.08814765     0.00000000
       9      -0.00337370     0.00000000     0.05397919     0.00000000    -0.05397919
      11      -0.00584342     0.00000000     0.04674735     0.00000000     0.03116490
      13       0.00646014     0.00000000    -0.15504342     0.00000000     0.00000000
      15       0.06162583     0.00000000     0.00000000     0.00000000     0.00000000

               Column  16     Column  17     Column  18     Column  19     Column  20
       1       0.03697550     0.00000000     0.00000000     0.00000000     0.00000000
       3       0.01162826     0.00000000    -0.15504342     0.00000000     0.00000000
       5       0.00116868     0.00000000    -0.04674735     0.00000000     0.09349470
       7      -0.00337370     0.00000000     0.05397919     0.00000000    -0.05397919
       8       0.00000000    -0.01785194     0.00000000     0.07140776     0.00000000
      10       0.00000000    -0.00826384     0.00000000     0.00000000     0.00000000
      12       0.00000000     0.03876085     0.00000000    -0.15504342     0.00000000
      14       0.00000000     0.09882118     0.00000000     0.00000000     0.00000000

               Column  21     Column  22     Column  23     Column  24     Column  25
       2       0.00000000     0.00000000     0.03952847     0.00000000     0.00000000
       4       0.00000000     0.00000000     0.03100868     0.00000000    -0.10336228
       6       0.00000000     0.00000000     0.01652768     0.00000000    -0.08814765
       8      -0.02856310     0.00000000     0.00000000     0.00000000     0.00000000
       9       0.00000000    -0.00112457     0.00000000     0.02698959     0.00000000
      10       0.02644429     0.00000000     0.00000000     0.00000000     0.00000000
      11       0.00000000    -0.00350605     0.00000000     0.07012102     0.00000000
      13       0.00000000    -0.00646014     0.00000000     0.07752171     0.00000000
      15       0.00000000    -0.01232517     0.00000000     0.00000000     0.00000000

               Column  26     Column  27     Column  28     Column  29     Column  30
       1       0.00000000     0.00000000     0.00000000    -0.00176074     0.00000000
       3       0.00000000     0.00000000     0.00000000    -0.00129203     0.00000000
       5       0.00000000     0.00000000     0.00000000    -0.00116868     0.00000000
       6       0.00000000     0.05288859     0.00000000     0.00000000     0.00000000
       7       0.00000000     0.00000000     0.00000000    -0.00112457     0.00000000
       8       0.00000000     0.00000000     0.00000000     0.00000000    -0.00595065
       9      -0.05397919     0.00000000     0.01439445     0.00000000     0.00000000
      10       0.00000000     0.00000000     0.00000000     0.00000000    -0.00826384
      11      -0.09349470     0.00000000     0.00000000     0.00000000     0.00000000
      12       0.00000000     0.00000000     0.00000000     0.00000000    -0.00775217
      14       0.00000000     0.00000000     0.00000000     0.00000000    -0.00658808

               Column  31     Column  32     Column  33     Column  34     Column  35
       3       0.01550434     0.00000000     0.00000000     0.00000000     0.00000000
       5       0.02337367     0.00000000    -0.03116490     0.00000000     0.00000000
       7       0.02698959     0.00000000    -0.05397919     0.00000000     0.01439445
       8       0.00000000     0.03570388     0.00000000    -0.02856310     0.00000000
      10       0.00000000     0.04407382     0.00000000    -0.02644429     0.00000000
      12       0.00000000     0.02584057     0.00000000     0.00000000     0.00000000

               Column  36
       8       0.00272030
    ==== End of matrix output ====

  Atomic type no.    1
  --------------------
  Nuclear charge:  26.00000
  Number of symmetry independent centers:    1
   Symmetry independent centers:
      Fe     0.000920000000000   0.000000000000000   0.377890000000000
  Number of basis sets to read;    2
  The basis set is "cc-pVDZ-DK" from the basis set library.
 BASLIB: Q, QEFF, INTQ   26.000000000000000        26.000000000000000               26
 BASLIB: BASNAM cc-pVDZ-DK                                                                      


                                Output from BASLIB
                                ------------------

 ISTART =          12
 BASTMP = cc-pVDZ-DK                                                                      
 IPOLST =           0
 POLFUN = F
 ANO    = F
 SADLEJ = F
 NQVD   = F
  Basis set file used for this atomic type with Z =  26 :
  Trying file: "/mnt/c/Users/kjellgren/Desktop/calc/cc-pVDZ-DK"
  Trying file: "/home/kjellgren/dalton/build/basis/cc-pVDZ-DK"
     "/home/kjellgren/dalton/build/basis/cc-pVDZ-DK"

  Output from FIND_POS... read INTEXP, INTORB, INTISG        20         6         0


                               Output from READ_NU
                               -------------------

 INTEXP,INTORB,NBLOCK:          20           6           1
 IPRINT=          10
 READ_NU read - J,NBLOCK,ALPHA(J,NBLOCK)           1           1   4316265.0000000000     
 READ_NU read - CPRIMU:   1.3999999999999999E-004  -7.2000000000000002E-005   1.7000000000000000E-005  -3.9999999999999998E-006  -6.9999999999999999E-006   0.0000000000000000     
 READ_NU read - J,NBLOCK,ALPHA(J,NBLOCK)           2           1   646342.40000000002     
 READ_NU read - CPRIMU:   4.0499999999999998E-004  -2.0900000000000001E-004   4.8999999999999998E-005  -1.1000000000000000E-005  -2.0999999999999999E-005   0.0000000000000000     
 READ_NU read - J,NBLOCK,ALPHA(J,NBLOCK)           3           1   147089.70000000001     
 READ_NU read - CPRIMU:   1.1190000000000000E-003  -5.7899999999999998E-004   1.3500000000000000E-004  -2.9000000000000000E-005  -5.8000000000000000E-005   0.0000000000000000     
 READ_NU read - J,NBLOCK,ALPHA(J,NBLOCK)           4           1   41661.519999999997     
 READ_NU read - CPRIMU:   2.9069999999999999E-003  -1.5060000000000000E-003   3.5199999999999999E-004  -7.7000000000000001E-005  -1.5500000000000000E-004   0.0000000000000000     
 READ_NU read - J,NBLOCK,ALPHA(J,NBLOCK)           5           1   13590.770000000000     
 READ_NU read - CPRIMU:   7.5709999999999996E-003  -3.9389999999999998E-003   9.2299999999999999E-004  -2.0100000000000001E-004  -3.9300000000000001E-004   0.0000000000000000     
 READ_NU read - J,NBLOCK,ALPHA(J,NBLOCK)           6           1   4905.7500000000000     
 READ_NU read - CPRIMU:   1.9817999999999999E-002  -1.0396000000000001E-002   2.4520000000000002E-003  -5.3499999999999999E-004  -1.1010000000000000E-003   0.0000000000000000     
 READ_NU read - J,NBLOCK,ALPHA(J,NBLOCK)           7           1   1912.7460000000001     
 READ_NU read - CPRIMU:   5.0734000000000001E-002  -2.7074000000000001E-002   6.4510000000000001E-003  -1.4080000000000000E-003  -2.6930000000000001E-003   0.0000000000000000     
 READ_NU read - J,NBLOCK,ALPHA(J,NBLOCK)           8           1   792.60429999999997     
 READ_NU read - CPRIMU:  0.11872900000000000       -6.5777000000000002E-002   1.6105999999999999E-002  -3.5179999999999999E-003  -7.4040000000000000E-003   0.0000000000000000     
 READ_NU read - J,NBLOCK,ALPHA(J,NBLOCK)           9           1   344.80650000000003     
 READ_NU read - CPRIMU:  0.23116400000000001      -0.13908200000000001        3.5742000000000003E-002  -7.8139999999999998E-003  -1.4484000000000000E-002   0.0000000000000000     
 READ_NU read - J,NBLOCK,ALPHA(J,NBLOCK)          10           1   155.89990000000000     
 READ_NU read - CPRIMU:  0.31932199999999999      -0.23014999999999999        6.5528000000000003E-002  -1.4371999999999999E-002  -3.1852999999999999E-002   0.0000000000000000     
 READ_NU read - J,NBLOCK,ALPHA(J,NBLOCK)          11           1   72.230909999999994     
 READ_NU read - CPRIMU:  0.23364799999999999      -0.22966300000000001        7.4429999999999996E-002  -1.6383000000000002E-002  -2.5352000000000000E-002   0.0000000000000000     
 READ_NU read - J,NBLOCK,ALPHA(J,NBLOCK)          12           1   32.725059999999999     
 READ_NU read - CPRIMU:   7.4022000000000004E-002   4.6091000000000000E-002  -2.5711000000000001E-002   5.6429999999999996E-003  -7.8869999999999999E-003   0.0000000000000000     
 READ_NU read - J,NBLOCK,ALPHA(J,NBLOCK)          13           1   15.667619999999999     
 READ_NU read - CPRIMU:   9.0952000000000005E-002  0.51505100000000004      -0.30864500000000000        7.1221000000000007E-002  0.19147000000000000        0.0000000000000000     
 READ_NU read - J,NBLOCK,ALPHA(J,NBLOCK)          14           1   7.5034830000000001     
 READ_NU read - CPRIMU:   8.8898000000000005E-002  0.48717500000000002      -0.44654400000000000       0.10780000000000001       0.14824200000000001        0.0000000000000000     
 READ_NU read - J,NBLOCK,ALPHA(J,NBLOCK)          15           1   3.3122229999999999     
 READ_NU read - CPRIMU:   1.4302000000000000E-002   8.4379999999999997E-002  0.14898500000000001       -4.4262000000000003E-002   5.0761000000000001E-002   0.0000000000000000     
 READ_NU read - J,NBLOCK,ALPHA(J,NBLOCK)          16           1   1.5584709999999999     
 READ_NU read - CPRIMU:  -3.8699999999999997E-004  -5.9109999999999996E-003  0.72039500000000001      -0.22599900000000001       -1.0122460000000000        0.0000000000000000     
 READ_NU read - J,NBLOCK,ALPHA(J,NBLOCK)          17           1  0.68391400000000002     
 READ_NU read - CPRIMU:   7.9999999999999996E-006  -4.3999999999999999E-005  0.38969799999999999      -0.23762800000000001       0.34233900000000000        0.0000000000000000     
 READ_NU read - J,NBLOCK,ALPHA(J,NBLOCK)          18           1  0.14675700000000000     
 READ_NU read - CPRIMU:  -2.5000000000000001E-005  -4.8700000000000002E-004   1.9184000000000000E-002  0.29777999999999999        1.8572660000000001        0.0000000000000000     
 READ_NU read - J,NBLOCK,ALPHA(J,NBLOCK)          19           1   7.0583000000000007E-002
 READ_NU read - CPRIMU:   3.1999999999999999E-005   4.3700000000000000E-004  -7.0229999999999997E-003  0.56549700000000003       -1.0636790000000000        0.0000000000000000     
 READ_NU read - J,NBLOCK,ALPHA(J,NBLOCK)          20           1   3.1448999999999998E-002
 READ_NU read - CPRIMU:   0.0000000000000000        0.0000000000000000        0.0000000000000000        0.0000000000000000        0.0000000000000000        1.0000000000000000     
 READ_NU...NBLOCK,INTEXP=           1          20
   4316265.0000000000        646342.40000000002        147089.70000000001        41661.519999999997        13590.770000000000        4905.7500000000000        1912.7460000000001        792.60429999999997        344.80650000000003        155.89990000000000        72.230909999999994        32.725059999999999        15.667619999999999        7.5034830000000001        3.3122229999999999        1.5584709999999999       0.68391400000000002       0.14675700000000000        7.0583000000000007E-002   3.1448999999999998E-002

  Output from FIND_POS... read INTEXP, INTORB, INTISG        16         5         0


                               Output from READ_NU
                               -------------------

 INTEXP,INTORB,NBLOCK:          16           5           2
 IPRINT=          10
 READ_NU read - J,NBLOCK,ALPHA(J,NBLOCK)           1           2   17745.689999999999     
 READ_NU read - CPRIMU:   1.2300000000000001E-004  -4.3000000000000002E-005   9.0000000000000002E-006   1.4000000000000000E-005   0.0000000000000000     
 READ_NU read - J,NBLOCK,ALPHA(J,NBLOCK)           2           2   4200.7209999999995     
 READ_NU read - CPRIMU:   5.6599999999999999E-004  -2.0000000000000001E-004   4.3999999999999999E-005   6.6000000000000005E-005   0.0000000000000000     
 READ_NU read - J,NBLOCK,ALPHA(J,NBLOCK)           3           2   1364.4290000000001     
 READ_NU read - CPRIMU:   2.6080000000000001E-003  -9.2299999999999999E-004   2.0100000000000001E-004   3.0299999999999999E-004   0.0000000000000000     
 READ_NU read - J,NBLOCK,ALPHA(J,NBLOCK)           4           2   522.08060000000000     
 READ_NU read - CPRIMU:   1.0295000000000000E-002  -3.6679999999999998E-003   8.0000000000000004E-004   1.2190000000000000E-003   0.0000000000000000     
 READ_NU read - J,NBLOCK,ALPHA(J,NBLOCK)           5           2   221.45949999999999     
 READ_NU read - CPRIMU:   3.4750999999999997E-002  -1.2539000000000000E-002   2.7380000000000000E-003   4.1200000000000004E-003   0.0000000000000000     
 READ_NU read - J,NBLOCK,ALPHA(J,NBLOCK)           6           2   100.90960000000000     
 READ_NU read - CPRIMU:   9.6689999999999998E-002  -3.5847999999999998E-002   7.8480000000000008E-003   1.1953000000000000E-002   0.0000000000000000     
 READ_NU read - J,NBLOCK,ALPHA(J,NBLOCK)           7           2   48.401150000000001     
 READ_NU read - CPRIMU:  0.21002999999999999       -8.0822000000000005E-002   1.7739000000000001E-002   2.6620000000000001E-002   0.0000000000000000     
 READ_NU read - J,NBLOCK,ALPHA(J,NBLOCK)           8           2   23.985360000000000     
 READ_NU read - CPRIMU:  0.33245700000000000      -0.13469700000000001        2.9749000000000001E-002   4.5698999999999997E-002   0.0000000000000000     
 READ_NU read - J,NBLOCK,ALPHA(J,NBLOCK)           9           2   12.182499999999999     
 READ_NU read - CPRIMU:  0.33077099999999998      -0.13691200000000001        3.0388999999999999E-002   4.5032999999999997E-002   0.0000000000000000     
 READ_NU read - J,NBLOCK,ALPHA(J,NBLOCK)          10           2   6.2422979999999999     
 READ_NU read - CPRIMU:  0.15473300000000001        3.3713000000000000E-002  -1.0765000000000000E-002  -1.3011000000000000E-002   0.0000000000000000     
 READ_NU read - J,NBLOCK,ALPHA(J,NBLOCK)          11           2   3.1109439999999999     
 READ_NU read - CPRIMU:   2.0964000000000000E-002  0.33567000000000002       -8.7689000000000003E-002 -0.14137500000000000        0.0000000000000000     
 READ_NU read - J,NBLOCK,ALPHA(J,NBLOCK)          12           2   1.5099579999999999     
 READ_NU read - CPRIMU:  -2.3460000000000000E-003  0.45549600000000001      -0.12847000000000000      -0.19414799999999999        0.0000000000000000     
 READ_NU read - J,NBLOCK,ALPHA(J,NBLOCK)          13           2  0.71084499999999995     
 READ_NU read - CPRIMU:  -1.8540000000000000E-003  0.28176000000000001       -7.3996000000000006E-002 -0.10177000000000000        0.0000000000000000     
 READ_NU read - J,NBLOCK,ALPHA(J,NBLOCK)          14           2  0.27259800000000001     
 READ_NU read - CPRIMU:  -3.1700000000000001E-004   4.5150000000000003E-002  0.21545500000000001       0.46786400000000000        0.0000000000000000     
 READ_NU read - J,NBLOCK,ALPHA(J,NBLOCK)          15           2  0.10397199999999999     
 READ_NU read - CPRIMU:   3.0000000000000001E-005  -3.1649999999999998E-003  0.57200499999999999       0.62421800000000005        0.0000000000000000     
 READ_NU read - J,NBLOCK,ALPHA(J,NBLOCK)          16           2   3.8165999999999999E-002
 READ_NU read - CPRIMU:   0.0000000000000000        0.0000000000000000        0.0000000000000000        0.0000000000000000        1.0000000000000000     
 READ_NU...NBLOCK,INTEXP=           2          16
   17745.689999999999        4200.7209999999995        1364.4290000000001        522.08060000000000        221.45949999999999        100.90960000000000        48.401150000000001        23.985360000000000        12.182499999999999        6.2422979999999999        3.1109439999999999        1.5099579999999999       0.71084499999999995       0.27259800000000001       0.10397199999999999        3.8165999999999999E-002

  Output from FIND_POS... read INTEXP, INTORB, INTISG         8         3         0


                               Output from READ_NU
                               -------------------

 INTEXP,INTORB,NBLOCK:           8           3           3
 IPRINT=          10
 READ_NU read - J,NBLOCK,ALPHA(J,NBLOCK)           1           3   114.88400000000000     
 READ_NU read - CPRIMU:   3.5320000000000000E-003  -3.8960000000000002E-003   0.0000000000000000     
 READ_NU read - J,NBLOCK,ALPHA(J,NBLOCK)           2           3   33.887799999999999     
 READ_NU read - CPRIMU:   2.5550000000000000E-002  -2.8206999999999999E-002   0.0000000000000000     
 READ_NU read - J,NBLOCK,ALPHA(J,NBLOCK)           3           3   12.372999999999999     
 READ_NU read - CPRIMU:   9.8357000000000000E-002 -0.11157300000000001        0.0000000000000000     
 READ_NU read - J,NBLOCK,ALPHA(J,NBLOCK)           4           3   4.9992500000000000     
 READ_NU read - CPRIMU:  0.23791899999999999      -0.27283900000000000        0.0000000000000000     
 READ_NU read - J,NBLOCK,ALPHA(J,NBLOCK)           5           3   2.0704300000000000     
 READ_NU read - CPRIMU:  0.35653899999999999      -0.31715199999999999        0.0000000000000000     
 READ_NU read - J,NBLOCK,ALPHA(J,NBLOCK)           6           3  0.82818300000000000     
 READ_NU read - CPRIMU:  0.36284800000000000        5.2061999999999997E-002   0.0000000000000000     
 READ_NU read - J,NBLOCK,ALPHA(J,NBLOCK)           7           3  0.30754700000000001     
 READ_NU read - CPRIMU:  0.23880299999999999       0.56126900000000002        0.0000000000000000     
 READ_NU read - J,NBLOCK,ALPHA(J,NBLOCK)           8           3   9.9455000000000002E-002
 READ_NU read - CPRIMU:   0.0000000000000000        0.0000000000000000        1.0000000000000000     
 READ_NU...NBLOCK,INTEXP=           3           8
   114.88400000000000        33.887799999999999        12.372999999999999        4.9992500000000000        2.0704300000000000       0.82818300000000000       0.30754700000000001        9.9455000000000002E-002

  Output from FIND_POS... read INTEXP, INTORB, INTISG         2         1         0


                               Output from READ_NU
                               -------------------

 INTEXP,INTORB,NBLOCK:           2           1           4
 IPRINT=          10
 READ_NU read - J,NBLOCK,ALPHA(J,NBLOCK)           1           4   3.2242999999999999     
 READ_NU read - CPRIMU:  0.42224899999999999     
 READ_NU read - J,NBLOCK,ALPHA(J,NBLOCK)           2           4  0.77580000000000005     
 READ_NU read - CPRIMU:  0.77146800000000004     
 READ_NU...NBLOCK,INTEXP=           4           2
   3.2242999999999999       0.77580000000000005     

  Output from FIND_POS: Reached end of file

  Info about the basis set file: your basis has no documentation.
  Basis set: cc-pVDZ-DK                                                                      
  Basis set:
      Max.ang.quantum no.:    3  Blocks:    1    1    1    1
 BASLIB: Q, QEFF, INTQ   26.000000000000000        26.000000000000000               26
 BASLIB: BASNAM HUCKEL                                                                          
  Basis set file used for this atomic type with Z =  26 :
  Trying file: "/mnt/c/Users/kjellgren/Desktop/calc/ano-4"
  Trying file: "/home/kjellgren/dalton/build/basis/ano-4"
     "/home/kjellgren/dalton/build/basis/ano-4"
  Basis set:
      Max.ang.quantum no.:    2  Blocks:    1    1    1

  Atomic type no.    2
  --------------------
  Nuclear charge:   7.00000
  Number of symmetry independent centers:    1
   Symmetry independent centers:
      N      0.000620000000000   0.000000000000000   3.515450000000000
  Number of basis sets to read;    2
  The basis set is "cc-pVDZ-DK" from the basis set library.
 BASLIB: Q, QEFF, INTQ   7.0000000000000000        7.0000000000000000                7
 BASLIB: BASNAM cc-pVDZ-DK                                                                      


                                Output from BASLIB
                                ------------------

 ISTART =          12
 BASTMP = cc-pVDZ-DK                                                                      
 IPOLST =           0
 POLFUN = F
 ANO    = F
 SADLEJ = F
 NQVD   = F
  Basis set file used for this atomic type with Z =   7 :
  Trying file: "/mnt/c/Users/kjellgren/Desktop/calc/cc-pVDZ-DK"
  Trying file: "/home/kjellgren/dalton/build/basis/cc-pVDZ-DK"
     "/home/kjellgren/dalton/build/basis/cc-pVDZ-DK"

  Output from FIND_POS... read INTEXP, INTORB, INTISG         9         3         0


                               Output from READ_NU
                               -------------------

 INTEXP,INTORB,NBLOCK:           9           3           1
 IPRINT=          10
 READ_NU read - J,NBLOCK,ALPHA(J,NBLOCK)           1           1   9046.0000000000000     
 READ_NU read - CPRIMU:   9.1060000000000002E-004  -1.9950000000000000E-004   0.0000000000000000     
 READ_NU read - J,NBLOCK,ALPHA(J,NBLOCK)           2           1   1357.0000000000000     
 READ_NU read - CPRIMU:   5.6443999999999999E-003  -1.2669000000000001E-003   0.0000000000000000     
 READ_NU read - J,NBLOCK,ALPHA(J,NBLOCK)           3           1   309.30000000000001     
 READ_NU read - CPRIMU:   2.7807200000000001E-002  -6.0905999999999998E-003   0.0000000000000000     
 READ_NU read - J,NBLOCK,ALPHA(J,NBLOCK)           4           1   87.730000000000004     
 READ_NU read - CPRIMU:  0.10368049999999999       -2.4697000000000000E-002   0.0000000000000000     
 READ_NU read - J,NBLOCK,ALPHA(J,NBLOCK)           5           1   28.559999999999999     
 READ_NU read - CPRIMU:  0.27901419999999999       -6.7602800000000005E-002   0.0000000000000000     
 READ_NU read - J,NBLOCK,ALPHA(J,NBLOCK)           6           1   10.210000000000001     
 READ_NU read - CPRIMU:  0.44822160000000000      -0.15823350000000000        0.0000000000000000     
 READ_NU read - J,NBLOCK,ALPHA(J,NBLOCK)           7           1   3.8380000000000001     
 READ_NU read - CPRIMU:  0.27773730000000002      -0.12120599999999999        0.0000000000000000     
 READ_NU read - J,NBLOCK,ALPHA(J,NBLOCK)           8           1  0.74660000000000004     
 READ_NU read - CPRIMU:   1.5399299999999999E-002  0.54988709999999996        0.0000000000000000     
 READ_NU read - J,NBLOCK,ALPHA(J,NBLOCK)           9           1  0.22480000000000000     
 READ_NU read - CPRIMU:   0.0000000000000000        0.0000000000000000        1.0000000000000000     
 READ_NU...NBLOCK,INTEXP=           1           9
   9046.0000000000000        1357.0000000000000        309.30000000000001        87.730000000000004        28.559999999999999        10.210000000000001        3.8380000000000001       0.74660000000000004       0.22480000000000000     

  Output from FIND_POS... read INTEXP, INTORB, INTISG         4         2         0


                               Output from READ_NU
                               -------------------

 INTEXP,INTORB,NBLOCK:           4           2           2
 IPRINT=          10
 READ_NU read - J,NBLOCK,ALPHA(J,NBLOCK)           1           2   13.550000000000001     
 READ_NU read - CPRIMU:   4.0010299999999999E-002   0.0000000000000000     
 READ_NU read - J,NBLOCK,ALPHA(J,NBLOCK)           2           2   2.9169999999999998     
 READ_NU read - CPRIMU:  0.21721320000000000        0.0000000000000000     
 READ_NU read - J,NBLOCK,ALPHA(J,NBLOCK)           3           2  0.79730000000000001     
 READ_NU read - CPRIMU:  0.51019070000000000        0.0000000000000000     
 READ_NU read - J,NBLOCK,ALPHA(J,NBLOCK)           4           2  0.21850000000000000     
 READ_NU read - CPRIMU:   0.0000000000000000        1.0000000000000000     
 READ_NU...NBLOCK,INTEXP=           2           4
   13.550000000000001        2.9169999999999998       0.79730000000000001       0.21850000000000000     

  Output from FIND_POS... read INTEXP, INTORB, INTISG         1         1         0


                               Output from READ_NU
                               -------------------

 INTEXP,INTORB,NBLOCK:           1           1           3
 IPRINT=          10
[...]
    7     Fe       2px        7
    8     Fe       2py        8
    9     Fe       2px       10
   10     Fe       2py       11
   11     Fe       2px       13
   12     Fe       2py       14
   13     Fe       2px       16
   14     Fe       2py       17
   15     Fe       2px       19
   16     Fe       2py       20
   17     Fe       3d2-      22
   18     Fe       3d0       24
   19     Fe       3d2+      26
   20     Fe       3d2-      27
   21     Fe       3d0       29
   22     Fe       3d2+      31
   23     Fe       3d2-      32
   24     Fe       3d0       34
   25     Fe       3d2+      36
   26     Fe       4f3-      37
   27     Fe       4f1-      39
   28     Fe       4f1+      41
   29     Fe       4f3+      43
   30     N        1s        44
   31     N        1s        45
   32     N        1s        46
   33     N        2px       47
   34     N        2py       48
   35     N        2px       50
   36     N        2py       51
   37     N        3d2-      53
   38     N        3d0       55
   39     N        3d2+      57
   40     C        1s        58
   41     C        1s        59
   42     C        1s        60
   43     C        2px       61
   44     C        2py       62
   45     C        2px       64
   46     C        2py       65
   47     C        3d2-      67
   48     C        3d0       69
   49     C        3d2+      71
   50     C        1s        72 +   73
   51     C        1s        74 +   75
   52     C        1s        76 +   77
   53     C        2px       78 +   79
   54     C        2py       80 +   81
   55     C        2pz       82 -   83
   56     C        2px       84 +   85
   57     C        2py       86 +   87
   58     C        2pz       88 -   89
   59     C        3d2-      90 +   91
   60     C        3d1-      92 -   93
   61     C        3d0       94 +   95
   62     C        3d1+      96 -   97
   63     C        3d2+      98 +   99
   64     O        1s       100 +  101
   65     O        1s       102 +  103
   66     O        1s       104 +  105
   67     O        2px      106 +  107
   68     O        2py      108 +  109
   69     O        2pz      110 -  111
   70     O        2px      112 +  113
   71     O        2py      114 +  115
   72     O        2pz      116 -  117
   73     O        3d2-     118 +  119
   74     O        3d1-     120 -  121
   75     O        3d0      122 +  123
   76     O        3d1+     124 -  125
   77     O        3d2+     126 +  127
   78     O        1s       128
   79     O        1s       129
   80     O        1s       130
   81     O        2px      131
   82     O        2py      132
   83     O        2px      134
   84     O        2py      135
   85     O        3d2-     137
   86     O        3d0      139
   87     O        3d2+     141
   88     O        1s       142
   89     O        1s       143
   90     O        1s       144
   91     O        2px      145
   92     O        2py      146
   93     O        2px      148
   94     O        2py      149
   95     O        3d2-     151
   96     O        3d0      153
   97     O        3d2+     155
   98     Fe00     1s       156
   99     Fe00     1s       157
  100     Fe00     1s       158
  101     Fe00     1s       159
  102     Fe00     2px      160
  103     Fe00     2py      161
  104     Fe00     2px      163
  105     Fe00     2py      164
  106     Fe00     3d2-     166
  107     Fe00     3d0      168
  108     Fe00     3d2+     170


  Symmetry  A" ( 2)

  109     Fe       2pz        9
  110     Fe       2pz       12
  111     Fe       2pz       15
  112     Fe       2pz       18
  113     Fe       2pz       21
  114     Fe       3d1-      23
  115     Fe       3d1+      25
  116     Fe       3d1-      28
  117     Fe       3d1+      30
  118     Fe       3d1-      33
  119     Fe       3d1+      35
  120     Fe       4f2-      38
  121     Fe       4f0       40
  122     Fe       4f2+      42
  123     N        2pz       49
  124     N        2pz       52
  125     N        3d1-      54
  126     N        3d1+      56
  127     C        2pz       63
  128     C        2pz       66
  129     C        3d1-      68
  130     C        3d1+      70
  131     C        1s        72 -   73
  132     C        1s        74 -   75
  133     C        1s        76 -   77
  134     C        2px       78 -   79
  135     C        2py       80 -   81
  136     C        2pz       82 +   83
  137     C        2px       84 -   85
  138     C        2py       86 -   87
  139     C        2pz       88 +   89
  140     C        3d2-      90 -   91
  141     C        3d1-      92 +   93
  142     C        3d0       94 -   95
  143     C        3d1+      96 +   97
  144     C        3d2+      98 -   99
  145     O        1s       100 -  101
  146     O        1s       102 -  103
  147     O        1s       104 -  105
  148     O        2px      106 -  107
  149     O        2py      108 -  109
  150     O        2pz      110 +  111
  151     O        2px      112 -  113
  152     O        2py      114 -  115
  153     O        2pz      116 +  117
  154     O        3d2-     118 -  119
  155     O        3d1-     120 +  121
  156     O        3d0      122 -  123
  157     O        3d1+     124 +  125
  158     O        3d2+     126 -  127
  159     O        2pz      133
  160     O        2pz      136
  161     O        3d1-     138
  162     O        3d1+     140
  163     O        2pz      147
  164     O        2pz      150
  165     O        3d1-     152
  166     O        3d1+     154
  167     Fe00     2pz      162
  168     Fe00     2pz      165
  169     Fe00     3d1-     167
  170     Fe00     3d1+     169
          Symmetry pointer indices

        1    0    2    0    3    0    4    0
        5    0    6    0    7    0    8    0
        0  109    9    0   10    0    0  110
       11    0   12    0    0  111   13    0
       14    0    0  112   15    0   16    0
        0  113   17    0    0  114   18    0
        0  115   19    0   20    0    0  116
       21    0    0  117   22    0   23    0
        0  118   24    0    0  119   25    0
       26    0    0  120   27    0    0  121
       28    0    0  122   29    0   30    0
       31    0   32    0   33    0   34    0
        0  123   35    0   36    0    0  124
       37    0    0  125   38    0    0  126
       39    0   40    0   41    0   42    0
       43    0   44    0    0  127   45    0
       46    0    0  128   47    0    0  129
       48    0    0  130   49    0   50  131
       51  132   52  133   53  134   54  135
       55  136   56  137   57  138   58  139
       59  140   60  141   61  142   62  143
       63  144   64  145   65  146   66  147
       67  148   68  149   69  150   70  151
       71  152   72  153   73  154   74  155
       75  156   76  157   77  158   78    0
       79    0   80    0   81    0   82    0
        0  159   83    0   84    0    0  160
       85    0    0  161   86    0    0  162
       87    0   88    0   89    0   90    0
       91    0   92    0    0  163   93    0
       94    0    0  164   95    0    0  165
       96    0    0  166   97    0   98    0
       99    0  100    0  101    0  102    0
      103    0    0  167  104    0  105    0
        0  168  106    0    0  169  107    0
        0  170  108    0    0    0    0    0
        0    0    0    0    0    0    0    0
        0    0    0    0    0    0    0    0
        0    0    0    0    0    0    0    0
        0    0    0    0    0    0    0    0
        0    0    0    0    0    0    0    0
        0    0    0    0    0    0    0    0
        0    0    0    0    0    0    0    0
        0    0    0    0    0    0    0    0
        0    0    0    0    0    0    0    0
        0    0    0    0    0    0    0    0
        0    0    0    0    0    0    0    0
        0    0    0    0    0    0    0    0
        0    0    0    0    0    0    0    0
        0    0    0    0    0    0    0    0
        0    0    0    0    0    0    0    0
        0    0    0    0    0    0    0    0
        0    0    0    0    0    0    0    0
        0    0    0    0    0    0    0    0
        0    0    0    0    0    0    0    0
        0    0    0    0    0    0    0    0
        0    0    0    0    0    0

  Symmetries of electric field:  A' (1)  A' (1)  A" (2)

  Symmetries of magnetic field:  A" (2)  A" (2)  A' (1)


                            **************************
                            *** Output from AOTOAO ***
                            **************************



       i -> IAOAO(i), JAOAO(i,1:2)
       ---------------------------

        1     1     1     1
        2     2     2     2
        3     3     3     3
        4     4     4     4
        5     5     5     5
        6     6     6     6
        7     7     7     7
        8     8     8     8
        9     9     9     9
       10    10    10    10
       11    11    11    11
       12    12    12    12
       13    13    13    13
       14    14    14    14
       15    15    15    15
       16    16    16    16
       17    17    17    17
       18    18    18    18
       19    19    19    19
       20    20    20    20
       21    21    21    21
       22    22    22    24
       23    23    23    25
       24    24    24    23
       25    25    25    26
       26    26    26    22
       27    27    27    29
       28    28    28    30
       29    29    29    28
       30    30    30    31
       31    31    31    27
       32    32    32    34
       33    33    33    35
       34    34    34    33
       35    35    35    36
       36    36    36    32
       37    37    37    40
       38    38    38    41
       39    39    39    39
       40    40    40    42
       41    41    41    38
       42    42    42    43
       43    43    43    37
       44    44    44    44
       45    45    45    45
       46    46    46    46
       47    47    47    47
       48    48    48    48
       49    49    49    49
       50    50    50    50
       51    51    51    51
       52    52    52    52
       53    53    53    55
       54    54    54    56
       55    55    55    54
       56    56    56    57
       57    57    57    53
       58    58    58    58
       59    59    59    59
       60    60    60    60
       61    61    61    61
       62    62    62    62
       63    63    63    63
       64    64    64    64
       65    65    65    65
       66    66    66    66
       67    67    67    69
       68    68    68    70
       69    69    69    68
       70    70    70    71
       71    71    71    67
       72    72    72    72
       73    86    74    74
       74    73    76    76
       75    87    78    78
       76    74    80    80
       77    88    82    82
       78    75    84    84
       79    89    86    86
       80    76    88    88
       81    90    90    94
       82    77    92    96
       83    91    94    92
       84    78    96    98
       85    92    98    90
       86    79    73    73
       87    93    75    75
       88    80    77    77
       89    94    79    79
       90    81    81    81
       91    95    83    83
       92    82    85    85
       93    96    87    87
       94    83    89    89
       95    97    91    95
       96    84    93    97
       97    98    95    93
       98    85    97    99
       99    99    99    91
      100   100   100   100
      101   114   102   102
      102   101   104   104
      103   115   106   106
      104   102   108   108
      105   116   110   110
      106   103   112   112
      107   117   114   114
      108   104   116   116
      109   118   118   122
      110   105   120   124
      111   119   122   120
      112   106   124   126
      113   120   126   118
      114   107   101   101
      115   121   103   103
      116   108   105   105
      117   122   107   107
      118   109   109   109
      119   123   111   111
      120   110   113   113
      121   124   115   115
      122   111   117   117
      123   125   119   123
      124   112   121   125
      125   126   123   121
      126   113   125   127
      127   127   127   119
      128   128   128   128
      129   129   129   129
      130   130   130   130
      131   131   131   131
      132   132   132   132
      133   133   133   133
      134   134   134   134
      135   135   135   135
      136   136   136   136
      137   137   137   139
      138   138   138   140
      139   139   139   138
      140   140   140   141
      141   141   141   137
      142   142   142   142
      143   143   143   143
      144   144   144   144
      145   145   145   145
      146   146   146   146
      147   147   147   147
      148   148   148   148
      149   149   149   149
      150   150   150   150
      151   151   151   153
      152   152   152   154
      153   153   153   152
      154   154   154   155
      155   155   155   151
      156   156   156   156
      157   157   157   157
      158   158   158   158
      159   159   159   159
      160   160   160   160
      161   161   161   161
      162   162   162   162
      163   163   163   163
      164   164   164   164
      165   165   165   165
      166   166   166   168
      167   167   167   169
      168   168   168   167
      169   169   169   170
      170   170   170   166


                                      ICNTAO
                                      ------

        1     1
        2     1
        3     1
        4     1
        5     1
        6     1
        7     1
        8     1
        9     1
       10     1
       11     1
       12     1
       13     1
       14     1
       15     1
       16     1
       17     1
       18     1
       19     1
       20     1
       21     1
       22     1
       23     1
       24     1
       25     1
       26     1
       27     1
       28     1
       29     1
       30     2
       31     2
       32     2
       33     2
       34     2
       35     2
       36     2
       37     2
       38     2
       39     2
       40     3
       41     3
       42     3
       43     3
       44     3
       45     3
       46     3
       47     3
       48     3
       49     3
       50     4
       51     4
       52     4
       53     4
       54     4
       55     4
       56     4
       57     4
       58     4
       59     4
       60     4
       61     4
       62     4
       63     4
       64     5
       65     5
       66     5
       67     5
       68     5
       69     5
       70     5
       71     5
       72     5
       73     5
       74     5
       75     5
       76     5
       77     5
       78     6
       79     6
       80     6
       81     6
       82     6
       83     6
       84     6
       85     6
       86     6
       87     6
       88     7
       89     7
       90     7
       91     7
       92     7
       93     7
       94     7
       95     7
       96     7
       97     7
       98     8
       99     8
      100     8
      101     8
      102     8
      103     8
      104     8
      105     8
      106     8
      107     8
      108     8
      109     1
      110     1
      111     1
      112     1
      113     1
      114     1
      115     1
      116     1
      117     1
      118     1
      119     1
      120     1
      121     1
      122     1
      123     2
      124     2
      125     2
      126     2
      127     3
      128     3
      129     3
      130     3
      131     4
      132     4
      133     4
      134     4
      135     4
      136     4
      137     4
      138     4
      139     4
      140     4
      141     4
      142     4
      143     4
      144     4
      145     5
      146     5
      147     5
      148     5
      149     5
      150     5
      151     5
      152     5
      153     5
      154     5
      155     5
      156     5
      157     5
      158     5
      159     6
      160     6
      161     6
      162     6
      163     7
      164     7
      165     7
      166     7
      167     8
      168     8
      169     8
      170     8


 Copy of .mol input
 ------------------

 - as modified by symmetry addition module

--------------------------------------------------------------------------------
ATOMBASIS                                                                       
 Title                                                                          
 Generated by the Dalton Input File Plugin for Avogadro                         
ATOMTYPES=5 CHARGE=-1 GENERATORS=1 Z                                            
Charge=26.0 Atoms=1 Basis=cc-pVDZ-DK                                            
Fe      0.11675899019575    0.00025273263906    0.00000000000000                
Charge=7.0 Atoms=1 Basis=cc-pVDZ-DK                                             
N       3.25431790129741   -0.00237842045120    0.00000000000000                
Charge=6.0 Atoms=2 Basis=cc-pVDZ-DK                                             
C      -1.38796340628107    2.99900154321674    0.00000000000000                
C      -1.39152500859722   -1.49854705195029    2.59520000000000                
Charge=8.0 Atoms=3 Basis=cc-pVDZ-DK                                             
O      -2.34965952518356   -2.50025545094964    4.32842000000000                
O       5.51333663881607   -0.00491683326125    0.00000000000000                
O      -2.34340535621155    5.00216197306580    0.00000000000000                
Charge=76.0 Atoms=1 Basis=MINAO                                                 
Fe00    0.11675899019575    0.00025273263906    0.00000000000000                
--------------------------------------------------------------------------------



                     .---------------------------------------.
                     | Starting in Integral Section (HERMIT) |
                     `---------------------------------------'



 ***************************************************************************************
 ****************** Output from **INTEGRALS input processing (HERMIT) ******************
 ***************************************************************************************


 - Using defaults, no **INTEGRALS input found

 Default print level:        1

 Calculation of one- and two-electron Hamiltonian integrals.

 Center of mass  (bohr):      0.000000000000      0.000000000000      0.000000000000
 Operator center (bohr):      0.000000000000      0.000000000000      0.000000000000
 Gauge origin    (bohr):      0.000000000000      0.000000000000      0.000000000000
 Dipole origin   (bohr):      0.000000000000      0.000000000000      0.000000000000

Calculation of 2-electron integrals are postoned until they are needed.


     ************************************************************************
     ************************** Output from HERINT **************************
     ************************************************************************



                      Nuclear contribution to dipole moments
                      --------------------------------------

                 au               Debye          C m (/(10**-30)

      x     -2.57154037        -6.53620325       -21.80242723
      y     -0.00555167        -0.01411095        -0.04706906


  Time used in ONEDRV     is       0.14 seconds
  Time used in HUCKEL     is       0.11 seconds
  Total CPU  time used in HERMIT:   0.59 seconds
  Total wall time used in HERMIT:   0.59 seconds


                        .----------------------------------.
                        | End of Integral Section (HERMIT) |
                        `----------------------------------'

  Total CPU  time used in DALTON:   0.62 seconds
  Total wall time used in DALTON:   0.64 seconds

 
     Date and time (Linux)  : Sun May 16 13:25:10 2021
     Host name              : ADM-124261                              
